nqpoint: 2      
npath: 1      
segment_nqpoint:
- 2
reciprocal_lattice:
- [   0.13991063,   0.00000000,   0.00000000 ] # a*
- [   0.00000000,   0.13991063,   0.00000000 ] # b*
- [   0.00000000,   0.00000000,   0.13991063 ] # c*
natom: 63     
lattice:
- [     7.147419929599980,     0.000000000000000,     0.000000000000000 ] # a
- [     0.000000000000000,     7.147419929599980,     0.000000000000000 ] # b
- [     0.000000000000000,     0.000000000000000,     7.147419929599980 ] # c
points:
- symbol: C  # 1
coordinates: [  0.4999321034996171,  0.5000656048202856,  0.5000656118158204 ]
  mass: 12.010700
- symbol: C  # 2
coordinates: [  0.6252894252779839,  0.6251067663587051,  0.6251067299819439 ]
  mass: 12.010700
- symbol: C  # 3
coordinates: [  0.4999028104117542,  0.7499131592650059,  0.7499132320185353 ]
  mass: 12.010700
- symbol: C  # 4
coordinates: [  0.6251343245548000,  0.8748560363865394,  0.8748560769606186 ]
  mass: 12.010700
- symbol: C  # 5
coordinates: [  0.7498480336665949,  0.4994359720235124,  0.7506763017770908 ]
  mass: 12.010700
- symbol: C  # 6
coordinates: [  0.8778308455077948,  0.6269993206136988,  0.8735062933890632 ]
  mass: 12.010700
- symbol: C  # 7
coordinates: [  0.7498480308683853,  0.7506763101717269,  0.4994360042029555 ]
  mass: 12.010700
- symbol: C  # 8
coordinates: [  0.8778308497051128,  0.8735062821962103,  0.6269992702458751 ]
  mass: 12.010700
- symbol: C  # 9
coordinates: [  0.1191970326903231,  0.1246674490622652,  0.1246674508810983 ]
  mass: 12.010700
- symbol: C  # 10
coordinates: [  0.9996603054495310,  0.2514833573099722,  0.2514833293278471 ]
  mass: 12.010700
- symbol: C  # 11
coordinates: [  0.1249549704364412,  0.3749702223176925,  0.3749702419051815 ]
  mass: 12.010700
- symbol: C  # 12
coordinates: [  0.2478078170088907,  0.9987336605811450,  0.2477531707164005 ]
  mass: 12.010700
- symbol: C  # 13
coordinates: [  0.3739105882015181,  0.1245741269954763,  0.3741021440375434 ]
  mass: 12.010700
- symbol: C  # 14
coordinates: [  0.2478078309999532,  0.2477532672547369,  0.9987337669132188 ]
  mass: 12.010700
- symbol: C  # 15
coordinates: [  0.3739105714122459,  0.3741021580286059,  0.1245742198961324 ]
  mass: 12.010700
- symbol: C  # 16
coordinates: [  0.4988962877684955,  0.9994460742982838,  0.9994460701009658 ]
  mass: 12.010700
- symbol: C  # 17
coordinates: [  0.6236913045417651,  0.1250405221468540,  0.1250405643998604 ]
  mass: 12.010700
- symbol: C  # 18
coordinates: [  0.4990852846391576,  0.2498317403466075,  0.2498317893153299 ]
  mass: 12.010700
- symbol: C  # 19
coordinates: [  0.6248644355572281,  0.3751378898133453,  0.3751378478401577 ]
  mass: 12.010700
- symbol: C  # 20
coordinates: [  0.7485180866236618,  0.0003400367844506,  0.2514821191009275 ]
  mass: 12.010700
- symbol: C  # 21
coordinates: [  0.8749625097723879,  0.1250384993190181,  0.3763114559508622 ]
  mass: 12.010700
- symbol: C  # 22
coordinates: [  0.7485180824263438,  0.2514820575402510,  0.0003399920620240 ]
  mass: 12.010700
- symbol: C  # 23
coordinates: [  0.8749624719965183,  0.3763114181749927,  0.1250384695180529 ]
  mass: 12.010700
- symbol: C  # 24
coordinates: [  0.0005542785871029,  0.5011046916618582,  0.9994432285161423 ]
  mass: 12.010700
- symbol: C  # 25
coordinates: [  0.1264903373391988,  0.6270040565884045,  0.1221671304611434 ]
  mass: 12.010700
- symbol: C  # 26
coordinates: [  0.0012686058618812,  0.7521950190354758,  0.2477497303140979 ]
  mass: 12.010700
- symbol: C  # 27
coordinates: [  0.1251456963226261,  0.8748565666478143,  0.3748670871993909 ]
  mass: 12.010700
- symbol: C  # 28
coordinates: [  0.2493220753156109,  0.4994400867950404,  0.2501482055917279 ]
  mass: 12.010700
- symbol: C  # 29
coordinates: [  0.3748915491733200,  0.6251089195832478,  0.3747076296592908 ]
  mass: 12.010700
- symbol: C  # 30
coordinates: [  0.2587137020370207,  0.7412876845332548,  0.0050262600146382 ]
  mass: 12.010700
- symbol: C  # 31
coordinates: [  0.3729973369773987,  0.8735121836264383,  0.1221689632903491 ]
  mass: 12.010700
- symbol: C  # 32
coordinates: [  0.5009363246130647,  0.4990653445766711,  0.9989730420666092 ]
  mass: 12.010700
- symbol: C  # 33
coordinates: [  0.6259015006902473,  0.6260932831814827,  0.1245708568644091 ]
  mass: 12.010700
- symbol: C  # 34
coordinates: [  0.5005604421230956,  0.7506796064660932,  0.2501471002977809 ]
  mass: 12.010700
- symbol: C  # 35
coordinates: [  0.6250292250913034,  0.8750456936353572,  0.3749695843252354 ]
  mass: 12.010700
- symbol: C  # 36
coordinates: [  0.7501688501322050,  0.5009176297551576,  0.2498279025981276 ]
  mass: 12.010700
- symbol: C  # 37
coordinates: [  0.8754275908831630,  0.6260906892384668,  0.3740971254433703 ]
  mass: 12.010700
- symbol: C  # 38
coordinates: [  0.7522503844685815,  0.7521952135112500,  0.9987287623101082 ]
  mass: 12.010700
- symbol: C  # 39
coordinates: [  0.8753409526268214,  0.8808076147769199,  0.1246634690246680 ]
  mass: 12.010700
- symbol: C  # 40
coordinates: [  0.0005542754740873,  0.9994432830812841,  0.5011047812046598 ]
  mass: 12.010700
- symbol: C  # 41
coordinates: [  0.1264902697623640,  0.1221670777148347,  0.6270040705794671 ]
  mass: 12.010700
- symbol: C  # 42
coordinates: [  0.0012686081899886,  0.2477496785471658,  0.7521950638068802 ]
  mass: 12.010700
- symbol: C  # 43
coordinates: [  0.1251456764553183,  0.3748670298360324,  0.8748565050871377 ]
  mass: 12.010700
- symbol: C  # 44
coordinates: [  0.2587136488709803,  0.0050262500669973,  0.7412878370358342 ]
  mass: 12.010700
- symbol: C  # 45
coordinates: [  0.3729973173899168,  0.1221689743432890,  0.8735121556443133 ]
  mass: 12.010700
- symbol: C  # 46
coordinates: [  0.2493220977013095,  0.2501481412328417,  0.4994401189744835 ]
  mass: 12.010700
- symbol: C  # 47
coordinates: [  0.3748915855500812,  0.3747075750941491,  0.6251088622198893 ]
  mass: 12.010700
- symbol: C  # 48
coordinates: [  0.5009362896354119,  0.9989730028916313,  0.4990654676980242 ]
  mass: 12.010700
- symbol: C  # 49
coordinates: [  0.6259014615152694,  0.1245708504285190,  0.6260932789841647 ]
  mass: 12.010700
- symbol: C  # 50
coordinates: [  0.5005604645087942,  0.2501471268807975,  0.7506796470401724 ]
  mass: 12.010700
- symbol: C  # 51
coordinates: [  0.6250292782573368,  0.3749694891860074,  0.8750456040925556 ]
  mass: 12.010700
- symbol: C  # 52
coordinates: [  0.7522503606837745,  0.9987287189378122,  0.7521952400942666 ]
  mass: 12.010700
- symbol: C  # 53
coordinates: [  0.8753409414339757,  0.1246634337671892,  0.8808076161760283 ]
  mass: 12.010700
- symbol: C  # 54
coordinates: [  0.7501688291456077,  0.2498279333784623,  0.5009175947775049 ]
  mass: 12.010700
- symbol: C  # 55
coordinates: [  0.8754276006769075,  0.3740971142505174,  0.6260907032295293 ]
  mass: 12.010700
- symbol: C  # 56
coordinates: [  0.0010240875227865,  0.4990610241365303,  0.4990609905579788 ]
  mass: 12.010700
- symbol: C  # 57
coordinates: [  0.1244119526708403,  0.6253657353318758,  0.6253657311345577 ]
  mass: 12.010700
- symbol: C  # 58
coordinates: [  0.9949675869118835,  0.7412785497684524,  0.7412786057327025 ]
  mass: 12.010700
- symbol: C  # 59
coordinates: [  0.2500858516228277,  0.5000958479013065,  0.7499122750298497 ]
  mass: 12.010700
- symbol: C  # 60
coordinates: [  0.3746283073296155,  0.6253713415506823,  0.8755863782513558 ]
  mass: 12.010700
- symbol: C  # 61
coordinates: [  0.2500858572192541,  0.7499122778280594,  0.5000959052646650 ]
  mass: 12.010700
- symbol: C  # 62
coordinates: [  0.3746282681546376,  0.8755863768522474,  0.6253713877211879 ]
  mass: 12.010700
- symbol: N  # 63
coordinates: [  0.9888075248987818,  0.0111979482090518,  0.0111979545889724 ]
  mass: 14.006700

phonon:
- q-position: [    0.0000000,    0.0000000,    0.0000000 ]
  distance:    0.0000000
  band:
  - # 1
    frequency:   -0.0027146368
    eigenvector:
    - # atom 1
      - [ -0.00000000023716,  0.00000000000000 ]
      - [  0.08896950402568,  0.00000000000000 ]
      - [ -0.08896950163715,  0.00000000000000 ]
    - # atom 2
      - [ -0.00000000023712,  0.00000000000000 ]
      - [  0.08897185512587,  0.00000000000000 ]
      - [ -0.08897185273741,  0.00000000000000 ]
    - # atom 3
      - [ -0.00000000023705,  0.00000000000000 ]
      - [  0.08896687478595,  0.00000000000000 ]
      - [ -0.08896687239753,  0.00000000000000 ]
    - # atom 4
      - [ -0.00000000023700,  0.00000000000000 ]
      - [  0.08897184768565,  0.00000000000000 ]
      - [ -0.08897184529716,  0.00000000000000 ]
    - # atom 5
      - [ -0.00000054508703,  0.00000000000000 ]
      - [  0.08897041499818,  0.00000000000000 ]
      - [ -0.08898241927249,  0.00000000000000 ]
    - # atom 6
      - [  0.00000542140873,  0.00000000000000 ]
      - [  0.08896036451007,  0.00000000000000 ]
      - [ -0.08897858229737,  0.00000000000000 ]
    - # atom 7
      - [  0.00000054461263,  0.00000000000000 ]
      - [  0.08898242166107,  0.00000000000000 ]
      - [ -0.08897041260986,  0.00000000000000 ]
    - # atom 8
      - [ -0.00000542188298,  0.00000000000000 ]
      - [  0.08897858468583,  0.00000000000000 ]
      - [ -0.08896036212194,  0.00000000000000 ]
    - # atom 9
      - [ -0.00000000023713,  0.00000000000000 ]
      - [  0.08898190225511,  0.00000000000000 ]
      - [ -0.08898189986607,  0.00000000000000 ]
    - # atom 10
      - [ -0.00000000023723,  0.00000000000000 ]
      - [  0.08897420510298,  0.00000000000000 ]
      - [ -0.08897420271400,  0.00000000000000 ]
    - # atom 11
      - [ -0.00000000023720,  0.00000000000000 ]
      - [  0.08896461880794,  0.00000000000000 ]
      - [ -0.08896461641922,  0.00000000000000 ]
    - # atom 12
      - [ -0.00000469561424,  0.00000000000000 ]
      - [  0.08898243325933,  0.00000000000000 ]
      - [ -0.08896241665887,  0.00000000000000 ]
    - # atom 13
      - [ -0.00000651782226,  0.00000000000000 ]
      - [  0.08897846182128,  0.00000000000000 ]
      - [ -0.08896739884713,  0.00000000000000 ]
    - # atom 14
      - [  0.00000469514017,  0.00000000000000 ]
      - [  0.08896241904726,  0.00000000000000 ]
      - [ -0.08898243087053,  0.00000000000000 ]
    - # atom 15
      - [  0.00000651734817,  0.00000000000000 ]
      - [  0.08896740123583,  0.00000000000000 ]
      - [ -0.08897845943245,  0.00000000000000 ]
    - # atom 16
      - [ -0.00000000023699,  0.00000000000000 ]
      - [  0.08896617497526,  0.00000000000000 ]
      - [ -0.08896617258670,  0.00000000000000 ]
    - # atom 17
      - [ -0.00000000023712,  0.00000000000000 ]
      - [  0.08897668756971,  0.00000000000000 ]
      - [ -0.08897668518096,  0.00000000000000 ]
    - # atom 18
      - [ -0.00000000023706,  0.00000000000000 ]
      - [  0.08897494879461,  0.00000000000000 ]
      - [ -0.08897494640585,  0.00000000000000 ]
    - # atom 19
      - [ -0.00000000023712,  0.00000000000000 ]
      - [  0.08897884109778,  0.00000000000000 ]
      - [ -0.08897883870913,  0.00000000000000 ]
    - # atom 20
      - [  0.00001059419070,  0.00000000000000 ]
      - [  0.08897371191698,  0.00000000000000 ]
      - [ -0.08898464796051,  0.00000000000000 ]
    - # atom 21
      - [ -0.00000027023895,  0.00000000000000 ]
      - [  0.08897709792942,  0.00000000000000 ]
      - [ -0.08898142510522,  0.00000000000000 ]
    - # atom 22
      - [ -0.00001059466516,  0.00000000000000 ]
      - [  0.08898465034927,  0.00000000000000 ]
      - [ -0.08897370952823,  0.00000000000000 ]
    - # atom 23
      - [  0.00000026976457,  0.00000000000000 ]
      - [  0.08898142749392,  0.00000000000000 ]
      - [ -0.08897709554069,  0.00000000000000 ]
    - # atom 24
      - [  0.00000912882778,  0.00000000000000 ]
      - [  0.08897213628632,  0.00000000000000 ]
      - [ -0.08897546450134,  0.00000000000000 ]
    - # atom 25
      - [  0.00000614658604,  0.00000000000000 ]
      - [  0.08895410459365,  0.00000000000000 ]
      - [ -0.08894591576576,  0.00000000000000 ]
    - # atom 26
      - [  0.00000742194929,  0.00000000000000 ]
      - [  0.08896840848198,  0.00000000000000 ]
      - [ -0.08897230567967,  0.00000000000000 ]
    - # atom 27
      - [ -0.00000302533063,  0.00000000000000 ]
      - [  0.08897501018974,  0.00000000000000 ]
      - [ -0.08896930221057,  0.00000000000000 ]
    - # atom 28
      - [  0.00000837459421,  0.00000000000000 ]
      - [  0.08895841725343,  0.00000000000000 ]
      - [ -0.08896423314895,  0.00000000000000 ]
    - # atom 29
      - [  0.00000512316887,  0.00000000000000 ]
      - [  0.08896688278309,  0.00000000000000 ]
      - [ -0.08896867365992,  0.00000000000000 ]
    - # atom 30
      - [  0.00002498702185,  0.00000000000000 ]
      - [  0.08893082843730,  0.00000000000000 ]
      - [ -0.08890356894667,  0.00000000000000 ]
    - # atom 31
      - [  0.00000611841281,  0.00000000000000 ]
      - [  0.08897256494190,  0.00000000000000 ]
      - [ -0.08894043466814,  0.00000000000000 ]
    - # atom 32
      - [  0.00000577417667,  0.00000000000000 ]
      - [  0.08896988201044,  0.00000000000000 ]
      - [ -0.08897408231701,  0.00000000000000 ]
    - # atom 33
      - [  0.00001176459028,  0.00000000000000 ]
      - [  0.08897929198299,  0.00000000000000 ]
      - [ -0.08898415345624,  0.00000000000000 ]
    - # atom 34
      - [  0.00001200233760,  0.00000000000000 ]
      - [  0.08897419294829,  0.00000000000000 ]
      - [ -0.08896473786515,  0.00000000000000 ]
    - # atom 35
      - [  0.00000515840776,  0.00000000000000 ]
      - [  0.08897890311884,  0.00000000000000 ]
      - [ -0.08896971746574,  0.00000000000000 ]
    - # atom 36
      - [  0.00000510491040,  0.00000000000000 ]
      - [  0.08898425685666,  0.00000000000000 ]
      - [ -0.08898003399243,  0.00000000000000 ]
    - # atom 37
      - [  0.00000584541567,  0.00000000000000 ]
      - [  0.08898573920054,  0.00000000000000 ]
      - [ -0.08897913261680,  0.00000000000000 ]
    - # atom 38
      - [  0.00000988882560,  0.00000000000000 ]
      - [  0.08896373568684,  0.00000000000000 ]
      - [ -0.08898965475441,  0.00000000000000 ]
    - # atom 39
      - [  0.00001073950187,  0.00000000000000 ]
      - [  0.08894198346769,  0.00000000000000 ]
      - [ -0.08899260312041,  0.00000000000000 ]
    - # atom 40
      - [ -0.00000912930202,  0.00000000000000 ]
      - [  0.08897546688969,  0.00000000000000 ]
      - [ -0.08897213389810,  0.00000000000000 ]
    - # atom 41
      - [ -0.00000614706024,  0.00000000000000 ]
      - [  0.08894591815358,  0.00000000000000 ]
      - [ -0.08895410220538,  0.00000000000000 ]
    - # atom 42
      - [ -0.00000742242345,  0.00000000000000 ]
      - [  0.08897230806784,  0.00000000000000 ]
      - [ -0.08896840609385,  0.00000000000000 ]
    - # atom 43
      - [  0.00000302485646,  0.00000000000000 ]
      - [  0.08896930459877,  0.00000000000000 ]
      - [ -0.08897500780132,  0.00000000000000 ]
    - # atom 44
      - [ -0.00002498749628,  0.00000000000000 ]
      - [  0.08890357133405,  0.00000000000000 ]
      - [ -0.08893082604898,  0.00000000000000 ]
    - # atom 45
      - [ -0.00000611888708,  0.00000000000000 ]
      - [  0.08894043705608,  0.00000000000000 ]
      - [ -0.08897256255331,  0.00000000000000 ]
    - # atom 46
      - [ -0.00000837506849,  0.00000000000000 ]
      - [  0.08896423553744,  0.00000000000000 ]
      - [ -0.08895841486486,  0.00000000000000 ]
    - # atom 47
      - [ -0.00000512364319,  0.00000000000000 ]
      - [  0.08896867604834,  0.00000000000000 ]
      - [ -0.08896688039453,  0.00000000000000 ]
    - # atom 48
      - [ -0.00000577465119,  0.00000000000000 ]
      - [  0.08897408470588,  0.00000000000000 ]
      - [ -0.08896987962160,  0.00000000000000 ]
    - # atom 49
      - [ -0.00001176506457,  0.00000000000000 ]
      - [  0.08898415584495,  0.00000000000000 ]
      - [ -0.08897928959436,  0.00000000000000 ]
    - # atom 50
      - [ -0.00001200281195,  0.00000000000000 ]
      - [  0.08896474025363,  0.00000000000000 ]
      - [ -0.08897419055954,  0.00000000000000 ]
    - # atom 51
      - [ -0.00000515888228,  0.00000000000000 ]
      - [  0.08896971985435,  0.00000000000000 ]
      - [ -0.08897890073005,  0.00000000000000 ]
    - # atom 52
      - [ -0.00000988929972,  0.00000000000000 ]
      - [  0.08898965714305,  0.00000000000000 ]
      - [ -0.08896373329860,  0.00000000000000 ]
    - # atom 53
      - [ -0.00001073997621,  0.00000000000000 ]
      - [  0.08899260550921,  0.00000000000000 ]
      - [ -0.08894198107983,  0.00000000000000 ]
    - # atom 54
      - [ -0.00000510538474,  0.00000000000000 ]
      - [  0.08898003638108,  0.00000000000000 ]
      - [ -0.08898425446804,  0.00000000000000 ]
    - # atom 55
      - [ -0.00000584588999,  0.00000000000000 ]
      - [  0.08897913500525,  0.00000000000000 ]
      - [ -0.08898573681205,  0.00000000000000 ]
    - # atom 56
      - [ -0.00000000023728,  0.00000000000000 ]
      - [  0.08897559073794,  0.00000000000000 ]
      - [ -0.08897558834922,  0.00000000000000 ]
    - # atom 57
      - [ -0.00000000023716,  0.00000000000000 ]
      - [  0.08896900174115,  0.00000000000000 ]
      - [ -0.08896899935273,  0.00000000000000 ]
    - # atom 58
      - [ -0.00000000023730,  0.00000000000000 ]
      - [  0.08895594796262,  0.00000000000000 ]
      - [ -0.08895594557484,  0.00000000000000 ]
    - # atom 59
      - [ -0.00000006519149,  0.00000000000000 ]
      - [  0.08897183338628,  0.00000000000000 ]
      - [ -0.08896683426520,  0.00000000000000 ]
    - # atom 60
      - [  0.00000198035197,  0.00000000000000 ]
      - [  0.08896703834789,  0.00000000000000 ]
      - [ -0.08895910982843,  0.00000000000000 ]
    - # atom 61
      - [  0.00000006471722,  0.00000000000000 ]
      - [  0.08896683665362,  0.00000000000000 ]
      - [ -0.08897183099793,  0.00000000000000 ]
    - # atom 62
      - [ -0.00000198082625,  0.00000000000000 ]
      - [  0.08895911221674,  0.00000000000000 ]
      - [ -0.08896703595943,  0.00000000000000 ]
    - # atom 63
      - [ -0.00000000025600,  0.00000000000000 ]
      - [  0.09609317778040,  0.00000000000000 ]
      - [ -0.09609317520092,  0.00000000000000 ]
  - # 2
    frequency:   -0.0023216148
    eigenvector:
    - # atom 1
      - [  0.04146194320123,  0.00000000000000 ]
      - [  0.08400098942226,  0.00000000000000 ]
      - [  0.08400099156682,  0.00000000000000 ]
    - # atom 2
      - [  0.04146343201323,  0.00000000000000 ]
      - [  0.08399714432515,  0.00000000000000 ]
      - [  0.08399714646976,  0.00000000000000 ]
    - # atom 3
      - [  0.04146851113287,  0.00000000000000 ]
      - [  0.08399765728776,  0.00000000000000 ]
      - [  0.08399765943225,  0.00000000000000 ]
    - # atom 4
      - [  0.04146953663648,  0.00000000000000 ]
      - [  0.08400268378533,  0.00000000000000 ]
      - [  0.08400268592994,  0.00000000000000 ]
    - # atom 5
      - [  0.04145706450792,  0.00000000000000 ]
      - [  0.08398902108229,  0.00000000000000 ]
      - [  0.08400116006289,  0.00000000000000 ]
    - # atom 6
      - [  0.04144804025538,  0.00000000000000 ]
      - [  0.08398509695731,  0.00000000000000 ]
      - [  0.08399837227449,  0.00000000000000 ]
    - # atom 7
      - [  0.04145706450791,  0.00000000000000 ]
      - [  0.08400115791802,  0.00000000000000 ]
      - [  0.08398902322686,  0.00000000000000 ]
    - # atom 8
      - [  0.04144804025551,  0.00000000000000 ]
      - [  0.08399837012972,  0.00000000000000 ]
      - [  0.08398509910164,  0.00000000000000 ]
    - # atom 9
      - [  0.04144710866172,  0.00000000000000 ]
      - [  0.08402343065979,  0.00000000000000 ]
      - [  0.08402343280464,  0.00000000000000 ]
    - # atom 10
      - [  0.04146092213879,  0.00000000000000 ]
      - [  0.08401969301422,  0.00000000000000 ]
      - [  0.08401969515888,  0.00000000000000 ]
    - # atom 11
      - [  0.04146579363479,  0.00000000000000 ]
      - [  0.08400748268634,  0.00000000000000 ]
      - [  0.08400748483077,  0.00000000000000 ]
    - # atom 12
      - [  0.04146590038571,  0.00000000000000 ]
      - [  0.08401572598355,  0.00000000000000 ]
      - [  0.08400145436117,  0.00000000000000 ]
    - # atom 13
      - [  0.04147533122679,  0.00000000000000 ]
      - [  0.08401449032965,  0.00000000000000 ]
      - [  0.08401160233085,  0.00000000000000 ]
    - # atom 14
      - [  0.04146590038560,  0.00000000000000 ]
      - [  0.08400145221678,  0.00000000000000 ]
      - [  0.08401572812841,  0.00000000000000 ]
    - # atom 15
      - [  0.04147533122663,  0.00000000000000 ]
      - [  0.08401160018635,  0.00000000000000 ]
      - [  0.08401449247442,  0.00000000000000 ]
    - # atom 16
      - [  0.04147180514916,  0.00000000000000 ]
      - [  0.08400633884775,  0.00000000000000 ]
      - [  0.08400634099222,  0.00000000000000 ]
    - # atom 17
      - [  0.04147092191051,  0.00000000000000 ]
      - [  0.08400851202498,  0.00000000000000 ]
      - [  0.08400851416970,  0.00000000000000 ]
    - # atom 18
      - [  0.04147561457319,  0.00000000000000 ]
      - [  0.08401130773135,  0.00000000000000 ]
      - [  0.08401130987603,  0.00000000000000 ]
    - # atom 19
      - [  0.04146936329377,  0.00000000000000 ]
      - [  0.08400662037946,  0.00000000000000 ]
      - [  0.08400662252424,  0.00000000000000 ]
    - # atom 20
      - [  0.04146457279697,  0.00000000000000 ]
      - [  0.08400755501712,  0.00000000000000 ]
      - [  0.08400471715666,  0.00000000000000 ]
    - # atom 21
      - [  0.04146481336927,  0.00000000000000 ]
      - [  0.08400799947882,  0.00000000000000 ]
      - [  0.08400865736681,  0.00000000000000 ]
    - # atom 22
      - [  0.04146457279723,  0.00000000000000 ]
      - [  0.08400471501174,  0.00000000000000 ]
      - [  0.08400755716177,  0.00000000000000 ]
    - # atom 23
      - [  0.04146481336926,  0.00000000000000 ]
      - [  0.08400865522197,  0.00000000000000 ]
      - [  0.08400800162356,  0.00000000000000 ]
    - # atom 24
      - [  0.04146474660818,  0.00000000000000 ]
      - [  0.08399436554613,  0.00000000000000 ]
      - [  0.08399319701627,  0.00000000000000 ]
    - # atom 25
      - [  0.04146847876886,  0.00000000000000 ]
      - [  0.08399363606564,  0.00000000000000 ]
      - [  0.08397377725435,  0.00000000000000 ]
    - # atom 26
      - [  0.04147547234984,  0.00000000000000 ]
      - [  0.08398842230855,  0.00000000000000 ]
      - [  0.08398740042021,  0.00000000000000 ]
    - # atom 27
      - [  0.04146773400261,  0.00000000000000 ]
      - [  0.08399820532007,  0.00000000000000 ]
      - [  0.08399292041740,  0.00000000000000 ]
    - # atom 28
      - [  0.04146812017088,  0.00000000000000 ]
      - [  0.08400591836593,  0.00000000000000 ]
      - [  0.08399909059992,  0.00000000000000 ]
    - # atom 29
      - [  0.04146196984080,  0.00000000000000 ]
      - [  0.08400418900488,  0.00000000000000 ]
      - [  0.08399821313618,  0.00000000000000 ]
    - # atom 30
      - [  0.04144381570119,  0.00000000000000 ]
      - [  0.08399938912802,  0.00000000000000 ]
      - [  0.08395381747791,  0.00000000000000 ]
    - # atom 31
      - [  0.04145579287049,  0.00000000000000 ]
      - [  0.08400706311092,  0.00000000000000 ]
      - [  0.08398149897944,  0.00000000000000 ]
    - # atom 32
      - [  0.04145911016963,  0.00000000000000 ]
      - [  0.08401222872722,  0.00000000000000 ]
      - [  0.08401059349139,  0.00000000000000 ]
    - # atom 33
      - [  0.04146483615860,  0.00000000000000 ]
      - [  0.08401015215932,  0.00000000000000 ]
      - [  0.08400643300333,  0.00000000000000 ]
    - # atom 34
      - [  0.04145799334269,  0.00000000000000 ]
      - [  0.08401285627033,  0.00000000000000 ]
      - [  0.08399837172735,  0.00000000000000 ]
    - # atom 35
      - [  0.04145572477922,  0.00000000000000 ]
      - [  0.08401002810951,  0.00000000000000 ]
      - [  0.08400013540404,  0.00000000000000 ]
    - # atom 36
      - [  0.04146636596887,  0.00000000000000 ]
      - [  0.08400773720975,  0.00000000000000 ]
      - [  0.08400414714990,  0.00000000000000 ]
    - # atom 37
      - [  0.04146896400137,  0.00000000000000 ]
      - [  0.08400098841044,  0.00000000000000 ]
      - [  0.08399505377803,  0.00000000000000 ]
    - # atom 38
      - [  0.04146535842714,  0.00000000000000 ]
      - [  0.08399512142959,  0.00000000000000 ]
      - [  0.08400532489350,  0.00000000000000 ]
    - # atom 39
      - [  0.04147205143553,  0.00000000000000 ]
      - [  0.08397666898752,  0.00000000000000 ]
      - [  0.08400816445178,  0.00000000000000 ]
    - # atom 40
      - [  0.04146474660840,  0.00000000000000 ]
      - [  0.08399319487157,  0.00000000000000 ]
      - [  0.08399436769075,  0.00000000000000 ]
    - # atom 41
      - [  0.04146847876901,  0.00000000000000 ]
      - [  0.08397377511036,  0.00000000000000 ]
      - [  0.08399363820982,  0.00000000000000 ]
    - # atom 42
      - [  0.04147547235002,  0.00000000000000 ]
      - [  0.08398739827559,  0.00000000000000 ]
      - [  0.08398842445307,  0.00000000000000 ]
    - # atom 43
      - [  0.04146773400254,  0.00000000000000 ]
      - [  0.08399291827285,  0.00000000000000 ]
      - [  0.08399820746475,  0.00000000000000 ]
    - # atom 44
      - [  0.04144381570179,  0.00000000000000 ]
      - [  0.08395381533495,  0.00000000000000 ]
      - [  0.08399939127164,  0.00000000000000 ]
    - # atom 45
      - [  0.04145579287064,  0.00000000000000 ]
      - [  0.08398149683558,  0.00000000000000 ]
      - [  0.08400706525555,  0.00000000000000 ]
    - # atom 46
      - [  0.04146812017108,  0.00000000000000 ]
      - [  0.08399908845549,  0.00000000000000 ]
      - [  0.08400592051022,  0.00000000000000 ]
    - # atom 47
      - [  0.04146196984092,  0.00000000000000 ]
      - [  0.08399821099164,  0.00000000000000 ]
      - [  0.08400419114937,  0.00000000000000 ]
    - # atom 48
      - [  0.04145911016977,  0.00000000000000 ]
      - [  0.08401059134673,  0.00000000000000 ]
      - [  0.08401223087178,  0.00000000000000 ]
    - # atom 49
      - [  0.04146483615889,  0.00000000000000 ]
      - [  0.08400643085843,  0.00000000000000 ]
      - [  0.08401015430411,  0.00000000000000 ]
    - # atom 50
      - [  0.04145799334298,  0.00000000000000 ]
      - [  0.08399836958291,  0.00000000000000 ]
      - [  0.08401285841499,  0.00000000000000 ]
    - # atom 51
      - [  0.04145572477935,  0.00000000000000 ]
      - [  0.08400013325948,  0.00000000000000 ]
      - [  0.08401003025429,  0.00000000000000 ]
    - # atom 52
      - [  0.04146535842737,  0.00000000000000 ]
      - [  0.08400532274846,  0.00000000000000 ]
      - [  0.08399512357401,  0.00000000000000 ]
    - # atom 53
      - [  0.04147205143579,  0.00000000000000 ]
      - [  0.08400816230666,  0.00000000000000 ]
      - [  0.08397667113141,  0.00000000000000 ]
    - # atom 54
      - [  0.04146636596899,  0.00000000000000 ]
      - [  0.08400414500509,  0.00000000000000 ]
      - [  0.08400773935466,  0.00000000000000 ]
    - # atom 55
      - [  0.04146896400151,  0.00000000000000 ]
      - [  0.08399505163324,  0.00000000000000 ]
      - [  0.08400099055538,  0.00000000000000 ]
    - # atom 56
      - [  0.04145884624671,  0.00000000000000 ]
      - [  0.08400421006041,  0.00000000000000 ]
      - [  0.08400421220511,  0.00000000000000 ]
    - # atom 57
      - [  0.04145559135592,  0.00000000000000 ]
      - [  0.08399720984749,  0.00000000000000 ]
      - [  0.08399721199203,  0.00000000000000 ]
    - # atom 58
      - [  0.04141584141627,  0.00000000000000 ]
      - [  0.08396424183910,  0.00000000000000 ]
      - [  0.08396424398333,  0.00000000000000 ]
    - # atom 59
      - [  0.04146148668816,  0.00000000000000 ]
      - [  0.08399740156871,  0.00000000000000 ]
      - [  0.08399764857615,  0.00000000000000 ]
    - # atom 60
      - [  0.04146208798422,  0.00000000000000 ]
      - [  0.08399994911743,  0.00000000000000 ]
      - [  0.08399271832738,  0.00000000000000 ]
    - # atom 61
      - [  0.04146148668816,  0.00000000000000 ]
      - [  0.08399764643166,  0.00000000000000 ]
      - [  0.08399740371331,  0.00000000000000 ]
    - # atom 62
      - [  0.04146208798427,  0.00000000000000 ]
      - [  0.08399271618308,  0.00000000000000 ]
      - [  0.08399995126192,  0.00000000000000 ]
    - # atom 63
      - [  0.04478865846848,  0.00000000000000 ]
      - [  0.09072007714701,  0.00000000000000 ]
      - [  0.09072007946328,  0.00000000000000 ]
  - # 3
    frequency:    0.0008676935
    eigenvector:
    - # atom 1
      - [ -0.11879522729317,  0.00000000000000 ]
      - [  0.02931985427453,  0.00000000000000 ]
      - [  0.02931985537826,  0.00000000000000 ]
    - # atom 2
      - [ -0.11879139140382,  0.00000000000000 ]
      - [  0.02932228190262,  0.00000000000000 ]
      - [  0.02932228300638,  0.00000000000000 ]
    - # atom 3
      - [ -0.11879034891431,  0.00000000000000 ]
      - [  0.02931797303399,  0.00000000000000 ]
      - [  0.02931797413768,  0.00000000000000 ]
    - # atom 4
      - [ -0.11878399465501,  0.00000000000000 ]
      - [  0.02931399280441,  0.00000000000000 ]
      - [  0.02931399390817,  0.00000000000000 ]
    - # atom 5
      - [ -0.11879204026523,  0.00000000000000 ]
      - [  0.02932632210811,  0.00000000000000 ]
      - [  0.02932395777236,  0.00000000000000 ]
    - # atom 6
      - [ -0.11876227506644,  0.00000000000000 ]
      - [  0.02931934445030,  0.00000000000000 ]
      - [  0.02931960489784,  0.00000000000000 ]
    - # atom 7
      - [ -0.11879204026524,  0.00000000000000 ]
      - [  0.02932395666847,  0.00000000000000 ]
      - [  0.02932632321185,  0.00000000000000 ]
    - # atom 8
      - [ -0.11876227506637,  0.00000000000000 ]
      - [  0.02931960379400,  0.00000000000000 ]
      - [  0.02931934555391,  0.00000000000000 ]
    - # atom 9
      - [ -0.11876104422498,  0.00000000000000 ]
      - [  0.02931770595528,  0.00000000000000 ]
      - [  0.02931770705916,  0.00000000000000 ]
    - # atom 10