 vasp.5.4.4.18Apr17-6-g9f103f2a35 (build Jan 14 2022 15:04:31) complex          
  
 executed on             LinuxIFC date 2024.12.16  11:18:53
 running on   96 total cores
 distrk:  each k-point on   96 cores,    1 groups
 distr:  one band on NCORES_PER_BAND=  12 cores,    8 groups


--------------------------------------------------------------------------------------------------------


 INCAR:
 POTCAR:    PAW_PBE C 08Apr2002                   
 POTCAR:    PAW_PBE N 08Apr2002                   
 POTCAR:    PAW_PBE C 08Apr2002                   
 POTCAR:    PAW_PBE C 08Apr2002                   
   VRHFIN =C: s2p2                                                              
   LEXCH  = PE                                                                  
   EATOM  =   147.1560 eV,   10.8157 Ry                                         
                                                                                
   TITEL  = PAW_PBE C 08Apr2002                                                 
   LULTRA =        F    use ultrasoft PP ?                                      
   IUNSCR =        1    unscreen: 0-lin 1-nonlin 2-no                           
   RPACOR =    1.200    partial core radius                                     
   POMASS =   12.011; ZVAL   =    4.000    mass and valenz                      
   RCORE  =    1.500    outmost cutoff radius                                   
   RWIGS  =    1.630; RWIGS  =    0.863    wigner-seitz radius (au A)           
   ENMAX  =  400.000; ENMIN  =  300.000 eV                                      
   ICORE  =        2    local potential                                         
   LCOR   =        T    correct aug charges                                     
   LPAW   =        T    paw PP                                                  
   EAUG   =  644.873                                                            
   DEXC   =    0.000                                                            
   RMAX   =    1.529    core radius for proj-oper                               
   RAUG   =    1.300    factor for augmentation sphere                          
   RDEP   =    1.501    radius for radial grids                                 
   RDEPT  =    1.300    core radius for aug-charge                              
                                                                                
   Atomic configuration                                                         
    4 entries                                                                   
     n  l   j            E        occ.                                          
     1  0  0.50      -273.3789   2.0000                                         
     2  0  0.50       -13.7508   2.0000                                         
     2  1  0.50        -5.2854   2.0000                                         
     3  2  1.50        -5.4423   0.0000                                         
   Description                                                                  
     l       E           TYP  RCUT    TYP  RCUT                                 
     0    -13.7508458     23  1.200                                             
     0     -8.2022199     23  1.200                                             
     1     -5.2854383     23  1.500                                             
     1     34.0145650     23  1.500                                             
     2     -5.4423304      7  1.500                                             
  local pseudopotential read in
  partial core-charges read in
  partial kinetic energy density read in
  atomic valenz-charges read in
  non local Contribution for L=           0  read in
    real space projection operators read in
  non local Contribution for L=           0  read in
    real space projection operators read in
  non local Contribution for L=           1  read in
    real space projection operators read in
  non local Contribution for L=           1  read in
    real space projection operators read in
    PAW grid and wavefunctions read in
 
   number of l-projection  operators is LMAX  =           4
   number of lm-projection operators is LMMAX =           8
 
 POTCAR:    PAW_PBE N 08Apr2002                   
   VRHFIN =N: s2p3                                                              
   LEXCH  = PE                                                                  
   EATOM  =   264.5486 eV,   19.4438 Ry                                         
                                                                                
   TITEL  = PAW_PBE N 08Apr2002                                                 
   LULTRA =        F    use ultrasoft PP ?                                      
   IUNSCR =        1    unscreen: 0-lin 1-nonlin 2-no                           
   RPACOR =    1.200    partial core radius                                     
   POMASS =   14.001; ZVAL   =    5.000    mass and valenz                      
   RCORE  =    1.500    outmost cutoff radius                                   
   RWIGS  =    1.400; RWIGS  =    0.741    wigner-seitz radius (au A)           
   ENMAX  =  400.000; ENMIN  =  300.000 eV                                      
   ICORE  =        2    local potential                                         
   LCOR   =        T    correct aug charges                                     
   LPAW   =        T    paw PP                                                  
   EAUG   =  627.112                                                            
   DEXC   =    0.000                                                            
   RMAX   =    1.529    core radius for proj-oper                               
   RAUG   =    1.300    factor for augmentation sphere                          
   RDEP   =    1.514    radius for radial grids                                 
   RDEPT  =    1.338    core radius for aug-charge                              
                                                                                
   Atomic configuration                                                         
    4 entries                                                                   
     n  l   j            E        occ.                                          
     1  0  0.50      -384.7179   2.0000                                         
     2  0  0.50       -18.5828   2.0000                                         
     2  1  0.50        -7.0898   3.0000                                         
     3  2  1.50        -6.8029   0.0000                                         
   Description                                                                  
     l       E           TYP  RCUT    TYP  RCUT                                 
     0    -18.5828119     23  1.200                                             
     0    -13.5018863     23  1.200                                             
     1     -7.0897853     23  1.500                                             
     1      9.5240782     23  1.500                                             
     2     -6.8029130      7  1.500                                             
  local pseudopotential read in
  partial core-charges read in
  partial kinetic energy density read in
  atomic valenz-charges read in
  non local Contribution for L=           0  read in
    real space projection operators read in
  non local Contribution for L=           0  read in
    real space projection operators read in
  non local Contribution for L=           1  read in
    real space projection operators read in
  non local Contribution for L=           1  read in
    real space projection operators read in
    PAW grid and wavefunctions read in
 
   number of l-projection  operators is LMAX  =           4
   number of lm-projection operators is LMMAX =           8
 
 POTCAR:    PAW_PBE C 08Apr2002                   
   VRHFIN =C: s2p2                                                              
   LEXCH  = PE                                                                  
   EATOM  =   147.1560 eV,   10.8157 Ry                                         
                                                                                
   TITEL  = PAW_PBE C 08Apr2002                                                 
   LULTRA =        F    use ultrasoft PP ?                                      
   IUNSCR =        1    unscreen: 0-lin 1-nonlin 2-no                           
   RPACOR =    1.200    partial core radius                                     
   POMASS =   12.011; ZVAL   =    4.000    mass and valenz                      
   RCORE  =    1.500    outmost cutoff radius                                   
   RWIGS  =    1.630; RWIGS  =    0.863    wigner-seitz radius (au A)           
   ENMAX  =  400.000; ENMIN  =  300.000 eV                                      
   ICORE  =        2    local potential                                         
   LCOR   =        T    correct aug charges                                     
   LPAW   =        T    paw PP                                                  
   EAUG   =  644.873                                                            
   DEXC   =    0.000                                                            
   RMAX   =    1.529    core radius for proj-oper                               
   RAUG   =    1.300    factor for augmentation sphere                          
   RDEP   =    1.501    radius for radial grids                                 
   RDEPT  =    1.300    core radius for aug-charge                              
                                                                                
   Atomic configuration                                                         
    4 entries                                                                   
     n  l   j            E        occ.                                          
     1  0  0.50      -273.3789   2.0000                                         
     2  0  0.50       -13.7508   2.0000                                         
     2  1  0.50        -5.2854   2.0000                                         
     3  2  1.50        -5.4423   0.0000                                         
   Description                                                                  
     l       E           TYP  RCUT    TYP  RCUT                                 
     0    -13.7508458     23  1.200                                             
     0     -8.2022199     23  1.200                                             
     1     -5.2854383     23  1.500                                             
     1     34.0145650     23  1.500                                             
     2     -5.4423304      7  1.500                                             
  local pseudopotential read in
  partial core-charges read in
  partial kinetic energy density read in
  atomic valenz-charges read in
  non local Contribution for L=           0  read in
    real space projection operators read in
  non local Contribution for L=           0  read in
    real space projection operators read in
  non local Contribution for L=           1  read in
    real space projection operators read in
  non local Contribution for L=           1  read in
    real space projection operators read in
    PAW grid and wavefunctions read in
 
   number of l-projection  operators is LMAX  =           4
   number of lm-projection operators is LMMAX =           8
 

 ----------------------------------------------------------------------------- 
|                                                                             |
|  ADVICE TO THIS USER RUNNING 'VASP/VAMP'   (HEAR YOUR MASTER'S VOICE ...):  |
|                                                                             |
|      You have a (more or less) 'large supercell' and for larger cells       |
|      it might be more efficient to use real space projection opertators     |
|      So try LREAL= Auto  in the INCAR   file.                               |
|      Mind:          For very  accurate calculation you might also keep the  |
|      reciprocal projection scheme          (i.e. LREAL=.FALSE.)             |
|                                                                             |
 ----------------------------------------------------------------------------- 

  PAW_PBE C 08Apr2002                   :
 energy of atom  1       EATOM= -147.1560
 kinetic energy error for atom=    0.0071 (will be added to EATOM!!)
  PAW_PBE N 08Apr2002                   :
 energy of atom  2       EATOM= -264.5486
 kinetic energy error for atom=    0.0125 (will be added to EATOM!!)
  PAW_PBE C 08Apr2002                   :
 energy of atom  3       EATOM= -147.1560
 kinetic energy error for atom=    0.0071 (will be added to EATOM!!)
 
 
 POSCAR:  C  N  C                                
  positions in direct lattice
  velocities in cartesian coordinates
 exchange correlation table for  LEXCH =        8
   RHO(1)=    0.500       N(1)  =     2000
   RHO(2)=  100.500       N(2)  =     4000

 VTST: version 3.2, (02/03/18)

 CHAIN: initializing optimizer
 
 OPT: Using VASP Conjugate-Gradient optimizer
 CHAIN: Read ICHAIN            0
 
 POSCAR:  C  N  C                                
  positions in direct lattice
  velocities in cartesian coordinates
 


--------------------------------------------------------------------------------------------------------


 ion  position               nearest neighbor table
   1  0.999  0.000  0.249-  62 1.54  26 1.55   9 1.55  44 1.56
   2  0.002  0.000  0.750-  27 1.55  63 1.55  45 1.55  10 1.55
   3  0.999  0.500  0.250-  60 1.55  46 1.55  11 1.55  24 1.55
   4  0.999  0.499  0.750-  47 1.54  25 1.55  12 1.55  61 1.56
   5  0.500  0.001  0.250-  40 1.49  13 1.54  30 1.56  58 1.56
   6  0.506  1.000  0.750-  14 1.48  31 1.54  41 1.55  59 1.55
   7  0.499  0.500  0.250-  28 1.49  42 1.55  56 1.55  15 1.55
   8  0.500  0.500  0.751-  57 1.49  16 1.54  29 1.56  43 1.56
   9  0.124  0.125  0.376-  18 1.54   1 1.55  48 1.55  33 1.55
  10  0.127  0.126  0.876-  32 1.54  49 1.54   2 1.55  17 1.55
  11  0.125  0.625  0.375-   3 1.55  50 1.55  35 1.55  20 1.55
  12  0.124  0.626  0.875-  19 1.54   4 1.55  34 1.55  51 1.55
  13  0.625  0.125  0.375-   5 1.54  52 1.54  37 1.55  21 1.55
  14  0.635  0.114  0.864-   6 1.48  36 1.48  53 1.48
  15  0.625  0.626  0.376-  23 1.54  39 1.55  54 1.55   7 1.55
  16  0.625  0.625  0.875-   8 1.54  38 1.54  55 1.55  22 1.55
  17  0.000  0.250  0.000-  61 1.54  44 1.54  24 1.54  10 1.55
  18  1.000  0.250  0.500-  45 1.54   9 1.54  25 1.55  60 1.55
  19  1.000  0.750  1.000-  63 1.54  12 1.54  26 1.55  46 1.55
  20  0.000  0.750  0.500-  11 1.55  27 1.55  47 1.55  62 1.55
  21  0.500  0.250  0.500-  29 1.54  41 1.54  56 1.55  13 1.55
  22  0.500  0.750  0.000-  30 1.54  59 1.54  42 1.55  16 1.55
  23  0.500  0.750  0.500-  31 1.53  58 1.54  43 1.54  15 1.54
  24  0.125  0.375  0.125-  17 1.54  48 1.55  34 1.55   3 1.55
  25  0.125  0.375  0.625-  35 1.55  18 1.55   4 1.55  49 1.57
  26  0.125  0.875  0.125-  50 1.55  19 1.55   1 1.55  32 1.57
  27  0.126  0.875  0.625-  33 1.54  51 1.54   2 1.55  20 1.55
  28  0.626  0.384  0.133-   7 1.49  38 1.52  52 1.52
  29  0.624  0.373  0.627-  21 1.54  53 1.56   8 1.56  39 1.56
  30  0.624  0.877  0.123-  22 1.54  36 1.56   5 1.56  54 1.56
  31  0.626  0.873  0.623-  23 1.53   6 1.54  55 1.55  37 1.55
  32  0.254  0.003  0.001-  40 1.51  10 1.54  59 1.55  26 1.57
  33  0.251  0.000  0.501-  27 1.54  58 1.55   9 1.55  41 1.56
  34  0.251  0.501  0.000-  57 1.50  42 1.54  24 1.55  12 1.55
  35  0.250  0.500  0.501-  43 1.54  25 1.55  11 1.55  56 1.55
  36  0.750  1.000  0.994-  14 1.48  63 1.54  44 1.55  30 1.56
  37  0.751  1.000  0.499-  45 1.55  13 1.55  62 1.55  31 1.55
  38  0.745  0.497  0.999-  28 1.52  16 1.54  61 1.55  46 1.57
  39  0.750  0.499  0.500-  47 1.54  60 1.55  15 1.55  29 1.56
  40  0.367  0.118  0.139-   5 1.49  48 1.50  32 1.51
  41  0.378  0.126  0.627-  21 1.54  49 1.55   6 1.55  33 1.56
  42  0.374  0.626  0.125-  34 1.54   7 1.55  22 1.55  50 1.55
  43  0.375  0.626  0.624-  23 1.54  35 1.54  51 1.55   8 1.56
  44  0.873  0.126  0.122-  17 1.54  36 1.55  52 1.55   1 1.56
  45  0.877  0.124  0.624-  18 1.54  53 1.54  37 1.55   2 1.55
  46  0.874  0.625  0.125-   3 1.55  19 1.55  54 1.55  38 1.57
  47  0.875  0.624  0.625-  39 1.54   4 1.54  55 1.55  20 1.55
  48  0.251  0.250  0.251-  40 1.50  56 1.54  24 1.55   9 1.55
  49  0.254  0.251  0.754-  57 1.51  10 1.54  41 1.55  25 1.57
  50  0.250  0.751  0.250-  58 1.54  26 1.55  11 1.55  42 1.55
  51  0.251  0.751  0.750-  27 1.54  43 1.55  12 1.55  59 1.56
  52  0.745  0.249  0.247-  28 1.52  13 1.54  44 1.55  60 1.57
  53  0.750  0.244  0.750-  14 1.48  45 1.54  61 1.55  29 1.56
  54  0.750  0.750  0.249-  62 1.54  46 1.55  15 1.55  30 1.56
  55  0.751  0.749  0.750-  63 1.55  16 1.55  47 1.55  31 1.55
  56  0.374  0.375  0.376-  48 1.54   7 1.55  21 1.55  35 1.55
  57  0.367  0.389  0.868-   8 1.49  34 1.50  49 1.51
  58  0.375  0.874  0.376-  23 1.54  50 1.54  33 1.55   5 1.56
  59  0.378  0.877  0.876-  22 1.54  32 1.55   6 1.55  51 1.56
  60  0.874  0.375  0.375-   3 1.55  18 1.55  39 1.55  52 1.57
  61  0.873  0.372  0.876-  17 1.54  53 1.55  38 1.55   4 1.56
  62  0.875  0.875  0.374-  54 1.54   1 1.54  37 1.55  20 1.55
  63  0.877  0.874  0.874-  19 1.54  36 1.54  55 1.55   2 1.55
 

IMPORTANT INFORMATION: All symmetrisations will be switched off!
NOSYMM: (Re-)initialisation of all symmetry stuff for point group C_1.

 
 
 KPOINTS: Sys                                     

Automatic generation of k-mesh.
Space group operators:
 irot       det(A)        alpha          n_x          n_y          n_z        tau_x        tau_y        tau_z
    1     1.000000     0.000000     1.000000     0.000000     0.000000     0.000000     0.000000     0.000000
 
 Subroutine IBZKPT returns following result:
 ===========================================
 
 Found    112 irreducible k-points:
 
 Following reciprocal coordinates:
            Coordinates               Weight
  0.000000  0.000000  0.000000      1.000000
  0.166667  0.000000  0.000000      2.000000
  0.333333 -0.000000  0.000000      2.000000
  0.500000  0.000000  0.000000      1.000000
  0.000000  0.166667  0.000000      2.000000
  0.166667  0.166667  0.000000      2.000000
  0.333333  0.166667  0.000000      2.000000
  0.500000  0.166667 -0.000000      2.000000
 -0.333333  0.166667 -0.000000      2.000000
 -0.166667  0.166667  0.000000      2.000000
  0.000000  0.333333  0.000000      2.000000
  0.166667  0.333333 -0.000000      2.000000
  0.333333  0.333333  0.000000      2.000000
  0.500000  0.333333 -0.000000      2.000000
 -0.333333  0.333333  0.000000      2.000000
 -0.166667  0.333333 -0.000000      2.000000
  0.000000  0.500000 -0.000000      1.000000
  0.166667  0.500000  0.000000      2.000000
  0.333333  0.500000  0.000000      2.000000
  0.500000  0.500000  0.000000      1.000000
  0.000000 -0.000000  0.166667      2.000000
  0.166667 -0.000000  0.166667      2.000000
  0.333333  0.000000  0.166667      2.000000
  0.500000  0.000000  0.166667      2.000000
 -0.333333 -0.000000  0.166667      2.000000
 -0.166667 -0.000000  0.166667      2.000000
 -0.000000  0.166667  0.166667      2.000000
  0.166667  0.166667  0.166667      2.000000
  0.333333  0.166667  0.166667      2.000000
  0.500000  0.166667  0.166667      2.000000
 -0.333333  0.166667  0.166667      2.000000
 -0.166667  0.166667  0.166667      2.000000
  0.000000  0.333333  0.166667      2.000000
  0.166667  0.333333  0.166667      2.000000
  0.333333  0.333333  0.166667      2.000000
  0.500000  0.333333  0.166667      2.000000
 -0.333333  0.333333  0.166667      2.000000
 -0.166667  0.333333  0.166667      2.000000
  0.000000  0.500000  0.166667      2.000000
  0.166667  0.500000  0.166667      2.000000
  0.333333  0.500000  0.166667      2.000000
  0.500000  0.500000  0.166667      2.000000
 -0.333333  0.500000  0.166667      2.000000
 -0.166667  0.500000  0.166667      2.000000
  0.000000 -0.333333  0.166667      2.000000
  0.166667 -0.333333  0.166667      2.000000
  0.333333 -0.333333  0.166667      2.000000
  0.500000 -0.333333  0.166667      2.000000
 -0.333333 -0.333333  0.166667      2.000000
 -0.166667 -0.333333  0.166667      2.000000
 -0.000000 -0.166667  0.166667      2.000000
  0.166667 -0.166667  0.166667      2.000000
  0.333333 -0.166667  0.166667      2.000000
  0.500000 -0.166667  0.166667      2.000000
 -0.333333 -0.166667  0.166667      2.000000
 -0.166667 -0.166667  0.166667      2.000000
  0.000000 -0.000000  0.333333      2.000000
  0.166667  0.000000  0.333333      2.000000
  0.333333 -0.000000  0.333333      2.000000
  0.500000  0.000000  0.333333      2.000000
 -0.333333 -0.000000  0.333333      2.000000
 -0.166667 -0.000000  0.333333      2.000000
  0.000000  0.166667  0.333333      2.000000
  0.166667  0.166667  0.333333      2.000000
  0.333333  0.166667  0.333333      2.000000
  0.500000  0.166667  0.333333      2.000000
 -0.333333  0.166667  0.333333      2.000000
 -0.166667  0.166667  0.333333      2.000000
 -0.000000  0.333333  0.333333      2.000000
  0.166667  0.333333  0.333333      2.000000
  0.333333  0.333333  0.333333      2.000000
  0.500000  0.333333  0.333333      2.000000
 -0.333333  0.333333  0.333333      2.000000
 -0.166667  0.333333  0.333333      2.000000
  0.000000  0.500000  0.333333      2.000000
  0.166667  0.500000  0.333333      2.000000
  0.333333  0.500000  0.333333      2.000000
  0.500000  0.500000  0.333333      2.000000
 -0.333333  0.500000  0.333333      2.000000
 -0.166667  0.500000  0.333333      2.000000
 -0.000000 -0.333333  0.333333      2.000000
  0.166667 -0.333333  0.333333      2.000000
  0.333333 -0.333333  0.333333      2.000000
  0.500000 -0.333333  0.333333      2.000000
 -0.333333 -0.333333  0.333333      2.000000
 -0.166667 -0.333333  0.333333      2.000000
  0.000000 -0.166667  0.333333      2.000000
  0.166667 -0.166667  0.333333      2.000000
  0.333333 -0.166667  0.333333      2.000000
  0.500000 -0.166667  0.333333      2.000000
 -0.333333 -0.166667  0.333333      2.000000
 -0.166667 -0.166667  0.333333      2.000000
  0.000000 -0.000000  0.500000      1.000000
  0.166667  0.000000  0.500000      2.000000
  0.333333  0.000000  0.500000      2.000000
  0.500000  0.000000  0.500000      1.000000
 -0.000000  0.166667  0.500000      2.000000
  0.166667  0.166667  0.500000      2.000000
  0.333333  0.166667  0.500000      2.000000
  0.500000  0.166667  0.500000      2.000000
 -0.333333  0.166667  0.500000      2.000000
 -0.166667  0.166667  0.500000      2.000000
  0.000000  0.333333  0.500000      2.000000
  0.166667  0.333333  0.500000      2.000000
  0.333333  0.333333  0.500000      2.000000
  0.500000  0.333333  0.500000      2.000000
 -0.333333  0.333333  0.500000      2.000000
 -0.166667  0.333333  0.500000      2.000000
  0.000000  0.500000  0.500000      1.000000
  0.166667  0.500000  0.500000      2.000000
  0.333333  0.500000  0.500000      2.000000
  0.500000  0.500000  0.500000      1.000000
 
 Following cartesian coordinates:
            Coordinates               Weight
  0.000000  0.000000  0.000000      1.000000
  0.023373  0.000055  0.000056      2.000000
  0.046746  0.000110  0.000111      2.000000
  0.070119  0.000166  0.000167      1.000000
  0.000055  0.023300 -0.000021      2.000000
  0.023428  0.023355  0.000035      2.000000
  0.046801  0.023410  0.000091      2.000000
  0.070174  0.023465  0.000146      2.000000
 -0.046691  0.023189 -0.000132      2.000000
 -0.023318  0.023244 -0.000076      2.000000
  0.000111  0.046599 -0.000041      2.000000
  0.023483  0.046654  0.000015      2.000000
  0.046856  0.046710  0.000070      2.000000
  0.070229  0.046765  0.000126      2.000000
 -0.046635  0.046489 -0.000152      2.000000
 -0.023262  0.046544 -0.000097      2.000000
  0.000166  0.069899 -0.000062      1.000000
  0.023539  0.069954 -0.000006      2.000000
  0.046912  0.070009  0.000050      2.000000
  0.070285  0.070064  0.000105      1.000000
  0.000056 -0.000021  0.023300      2.000000
  0.023429  0.000035  0.023356      2.000000
  0.046802  0.000090  0.023411      2.000000
  0.070174  0.000145  0.023467      2.000000
 -0.046690 -0.000131  0.023189      2.000000
 -0.023317 -0.000076  0.023245      2.000000
  0.000111  0.023279  0.023280      2.000000
  0.023484  0.023334  0.023335      2.000000
  0.046857  0.023389  0.023391      2.000000
  0.070230  0.023445  0.023446      2.000000
 -0.046635  0.023169  0.023169      2.000000
 -0.023262  0.023224  0.023224      2.000000
  0.000166  0.046579  0.023259      2.000000
  0.023539  0.046634  0.023315      2.000000
  0.046912  0.046689  0.023370      2.000000
  0.070285  0.046744  0.023426      2.000000
 -0.046580  0.046468  0.023148      2.000000
 -0.023207  0.046524  0.023204      2.000000
  0.000221  0.069878  0.023239      2.000000
  0.023594  0.069934  0.023294      2.000000
  0.046967  0.069989  0.023350      2.000000
  0.070340  0.070044  0.023405      2.000000
 -0.046524  0.069768  0.023127      2.000000
 -0.023151  0.069823  0.023183      2.000000
 -0.000055 -0.046620  0.023341      2.000000
  0.023318 -0.046565  0.023397      2.000000
  0.046691 -0.046509  0.023452      2.000000
  0.070064 -0.046454  0.023508      2.000000
 -0.046801 -0.046730  0.023230      2.000000
 -0.023428 -0.046675  0.023286      2.000000
  0.000000 -0.023320  0.023321      2.000000
  0.023373 -0.023265  0.023376      2.000000
  0.046746 -0.023210  0.023432      2.000000
  0.070119 -0.023155  0.023487      2.000000
 -0.046745 -0.023431  0.023210      2.000000
 -0.023373 -0.023375  0.023265      2.000000
  0.000111 -0.000041  0.046600      2.000000
  0.023484  0.000014  0.046656      2.000000
  0.046857  0.000069  0.046712      2.000000
  0.070230  0.000124  0.046767      2.000000
 -0.046635 -0.000151  0.046489      2.000000
 -0.023262 -0.000096  0.046545      2.000000
  0.000167  0.023259  0.046580      2.000000
  0.023540  0.023314  0.046635      2.000000
  0.046912  0.023369  0.046691      2.000000
  0.070285  0.023424  0.046747      2.000000
 -0.046579  0.023148  0.046469      2.000000
 -0.023206  0.023203  0.046524      2.000000
  0.000222  0.046558  0.046559      2.000000
  0.023595  0.046613  0.046615      2.000000
  0.046968  0.046669  0.046670      2.000000
  0.070341  0.046724  0.046726      2.000000
 -0.046524  0.046448  0.046448      2.000000
 -0.023151  0.046503  0.046504      2.000000
  0.000277  0.069858  0.046539      2.000000
  0.023650  0.069913  0.046594      2.000000
  0.047023  0.069968  0.046650      2.000000
  0.070396  0.070023  0.046706      2.000000
 -0.046469  0.069747  0.046428      2.000000
 -0.023096  0.069803  0.046483      2.000000
  0.000001 -0.046640  0.046641      2.000000
  0.023374 -0.046585  0.046697      2.000000
  0.046747 -0.046530  0.046753      2.000000
  0.070120 -0.046475  0.046808      2.000000
 -0.046745 -0.046751  0.046530      2.000000
 -0.023372 -0.046695  0.046586      2.000000
  0.000056 -0.023341  0.046621      2.000000
  0.023429 -0.023286  0.046676      2.000000
  0.046802 -0.023230  0.046732      2.000000
  0.070175 -0.023175  0.046788      2.000000
 -0.046690 -0.023451  0.046510      2.000000
 -0.023317 -0.023396  0.046565      2.000000
  0.000167 -0.000062  0.069901      1.000000
  0.023540 -0.000006  0.069956      2.000000
  0.046913  0.000049  0.070012      2.000000
  0.070286  0.000104  0.070067      1.000000
  0.000222  0.023238  0.069880      2.000000
  0.023595  0.023293  0.069936      2.000000
  0.046968  0.023348  0.069991      2.000000
  0.070341  0.023404  0.070047      2.000000
 -0.046524  0.023128  0.069769      2.000000
 -0.023151  0.023183  0.069824      2.000000
  0.000278  0.046538  0.069860      2.000000
  0.023650  0.046593  0.069915      2.000000
  0.047023  0.046648  0.069971      2.000000
  0.070396  0.046703  0.070026      2.000000
 -0.046468  0.046427  0.069748      2.000000
 -0.023095  0.046482  0.069804      2.000000
  0.000333  0.069837  0.069839      1.000000
  0.023706  0.069892  0.069895      2.000000
  0.047079  0.069948  0.069950      2.000000
  0.070452  0.070003  0.070006      1.000000
 
 TETIRR: Found    648 inequivalent tetrahedra from     1296


--------------------------------------------------------------------------------------------------------




 Dimension of arrays:
   k-points           NKPTS =    112   k-points in BZ     NKDIM =    112   number of bands    NBANDS=    192
   number of dos      NEDOS =   3000   number of ions     NIONS =     63
   non local maximal  LDIM  =      4   non local SUM 2l+1 LMDIM =      8
   total plane-waves  NPLWV = 157464
   max r-space proj   IRMAX =      1   max aug-charges    IRDMAX=   2358
   dimension x,y,z NGX =    54 NGY =   54 NGZ =   54
   dimension x,y,z NGXF=    80 NGYF=   80 NGZF=   80
   support grid    NGXF=    80 NGYF=   80 NGZF=   80
   ions per type =              13   1  49
   NGX,Y,Z   is equivalent  to a cutoff of  12.59, 12.55, 12.55 a.u.
   NGXF,Y,Z  is equivalent  to a cutoff of  18.65, 18.59, 18.59 a.u.

 SYSTEM =  Sys                                     
 POSCAR =   C  N  C                                

 Startparameter for this run:
   NWRITE =      2    write-flag & timer
   PREC   = high      normal or accurate (medium, high low for compatibility)
   ISTART =      1    job   : 0-new  1-cont  2-samecut
   ICHARG =      1    charge: 1-file 2-atom 10-const
   ISPIN  =      2    spin polarized calculation?
   LNONCOLLINEAR =      F non collinear calculations
   LSORBIT =      F    spin-orbit coupling
   INIWAV =      1    electr: 0-lowe 1-rand  2-diag
   LASPH  =      F    aspherical Exc in radial PAW
   METAGGA=      F    non-selfconsistent MetaGGA calc.

 Electronic Relaxation 1
   ENCUT  =  520.0 eV  38.22 Ry    6.18 a.u.  13.26 13.30 13.30*2*pi/ulx,y,z
   ENINI  =  520.0     initial cutoff
   ENAUG  =  644.9 eV  augmentation charge cutoff
   NELM   =     60;   NELMIN=  2; NELMDL=  0     # of ELM steps 
   EDIFF  = 0.1E-05   stopping-criterion for ELM
   LREAL  =      F    real-space projection
   NLSPLINE    = F    spline interpolate recip. space projectors
   LCOMPAT=      F    compatible to vasp.4.4
   GGA_COMPAT  = T    GGA compatible to vasp.4.4-vasp.4.6
   LMAXPAW     = -100 max onsite density
   LMAXMIX     =    2 max onsite mixed and CHGCAR
   VOSKOWN=      0    Vosko Wilk Nusair interpolation
   ROPT   =    0.00000   0.00000   0.00000
 Ionic relaxation
   EDIFFG = -.1E-01   stopping-criterion for IOM
   NSW    =   1000    number of steps for IOM
   NBLOCK =      1;   KBLOCK =   1000    inner block; outer block 
   IBRION =      2    ionic relax: 0-MD 1-quasi-New 2-CG
   NFREE  =      1    steps in history (QN), initial steepest desc. (CG)
   ISIF   =      3    stress and relaxation
   IWAVPR =     11    prediction:  0-non 1-charg 2-wave 3-comb
   ISYM   =      0    0-nonsym 1-usesym 2-fastsym
   LCORR  =      T    Harris-Foulkes like correction to forces

   POTIM  = 0.5000    time-step for ionic-motion
   TEIN   =    0.0    initial temperature
   TEBEG  =    0.0;   TEEND  =   0.0 temperature during run
   SMASS  =  -3.00    Nose mass-parameter (am)
   estimated Nose-frequenzy (Omega)   =  0.10E-29 period in steps =****** mass=  -0.116E-26a.u.
   SCALEE = 1.0000    scale energy and forces
   NPACO  =    256;   APACO  = 16.0  distance and # of slots for P.C.
   PSTRESS=    0.0 pullay stress

  Mass of Ions in am
   POMASS =  12.01 14.00 12.01
  Ionic Valenz
   ZVAL   =   4.00  5.00  4.00
  Atomic Wigner-Seitz radii
   RWIGS  =  -1.00 -1.00 -1.00
  virtual crystal weights 
   VCA    =   1.00  1.00  1.00
   NELECT =     253.0000    total number of electrons
   NUPDOWN=      -1.0000    fix difference up-down

 DOS related values:
   EMIN   = -20.00;   EMAX   = 20.00  energy-range for DOS
   EFERMI =   0.00
   ISMEAR =    -5;   SIGMA  =   0.10  broadening in eV -4-tet -1-fermi 0-gaus

 Electronic relaxation 2 (details)
   IALGO  =     38    algorithm
   LDIAG  =      T    sub-space diagonalisation (order eigenvalues)
   LSUBROT=      F    optimize rotation matrix (better conditioning)
   TURBO    =      0    0=normal 1=particle mesh
   IRESTART =      0    0=no restart 2=restart with 2 vectors
   NREBOOT  =      0    no. of reboots
   NMIN     =      0    reboot dimension
   EREF     =   0.00    reference energy to select bands
   IMIX   =      4    mixing-type and parameters
     AMIX     =   0.40;   BMIX     =  1.00
     AMIX_MAG =   1.60;   BMIX_MAG =  1.00
     AMIN     =   0.10
     WC   =   100.;   INIMIX=   1;  MIXPRE=   1;  MAXMIX= -45

 Intra band minimization:
   WEIMIN = 0.0010     energy-eigenvalue tresh-hold
   EBREAK =  0.13E-08  absolut break condition
   DEPER  =   0.30     relativ break condition  

   TIME   =   0.40     timestep for ELM

  volume/ion in A,a.u.               =       5.79        39.08
  Fermi-wavevector in a.u.,A,eV,Ry     =   1.449011  2.738234 28.567252  2.099634
  Thomas-Fermi vector in A             =   2.566787
 
 Write flags
   LWAVE        =      T    write WAVECAR
   LDOWNSAMPLE  =      F    k-point downsampling of WAVECAR
   LCHARG       =      T    write CHGCAR
   LVTOT        =      F    write LOCPOT, total local potential
   LVHAR        =      F    write LOCPOT, Hartree potential only
   LELF         =      F    write electronic localiz. function (ELF)
   LORBIT       =     11    0 simple, 1 ext, 2 COOP (PROOUT), +10 PAW based schemes


 Dipole corrections
   LMONO  =      F    monopole corrections only (constant potential shift)
   LDIPOL =      F    correct potential (dipole corrections)
   IDIPOL =      0    1-x, 2-y, 3-z, 4-all directions 
   EPSILON=  1.0000000 bulk dielectric constant

 Exchange correlation treatment:
   GGA     =    --    GGA type
   LEXCH   =     8    internal setting for exchange type
   VOSKOWN=      0    Vosko Wilk Nusair interpolation
   LHFCALC =     F    Hartree Fock is set to
   LHFONE  =     F    Hartree Fock one center treatment
   AEXX    =    0.0000 exact exchange contribution

 Linear response parameters
   LEPSILON=     F    determine dielectric tensor
   LRPA    =     F    only Hartree local field effects (RPA)
   LNABLA  =     F    use nabla operator in PAW spheres
   LVEL    =     F    velocity operator in full k-point grid
   LINTERFAST=   F  fast interpolation
   KINTER  =     0    interpolate to denser k-point grid
   CSHIFT  =0.1000    complex shift for real part using Kramers Kronig
   OMEGAMAX=  -1.0    maximum frequency
   DEG_THRESHOLD= 0.2000000E-02 threshold for treating states as degnerate
   RTIME   =   -0.100 relaxation time in fs
  (WPLASMAI=    0.000 imaginary part of plasma frequency in eV, 0.658/RTIME)
   DFIELD  = 0.0000000 0.0000000 0.0000000 field for delta impulse in time
 
 Orbital magnetization related:
   ORBITALMAG=     F  switch on orbital magnetization
   LCHIMAG   =     F  perturbation theory with respect to B field
   DQ        =  0.001000  dq finite difference perturbation B field
   LLRAUG    =     F  two centre corrections for induced B field



--------------------------------------------------------------------------------------------------------


 conjugate gradient relaxation of ions
 charge density and potential will be updated during run
 spin polarized calculation
 Variant of blocked Davidson
 Davidson routine will perform the subspace rotation
 perform sub-space diagonalisation
    after iterative eigenvector-optimisation
 modified Broyden-mixing scheme, WC =      100.0
 initial mixing is a Kerker type mixing with AMIX =  0.4000 and BMIX =      1.0000
 Hartree-type preconditioning will be used
 using additional bands           65
 reciprocal scheme for non local part
 use partial core corrections
 calculate Harris-corrections to forces 
   (improved forces if not selfconsistent)
 use gradient corrections 
 use of overlap-Matrix (Vanderbilt PP)
 Fermi weights with tetrahedron method with Bloechl corrections


--------------------------------------------------------------------------------------------------------


  energy-cutoff  :      520.00
  volume of cell :      364.86
      direct lattice vectors                 reciprocal lattice vectors
     7.130833517 -0.016931925 -0.017052126     0.140237644  0.000331092  0.000333448
    -0.016903419  7.153236607  0.006342890     0.000331650  0.139797751 -0.000123198
    -0.017023055  0.006344102  7.153062820     0.000334017 -0.000123175  0.139801158

  length of vectors
     7.130874008  7.153259391  7.153085889     0.140238431  0.139798198  0.139801612


 
 old parameters found on file WAVECAR:
  energy-cutoff  :      520.00
  volume of cell :      364.86
      direct lattice vectors                 reciprocal lattice vectors
     7.130833517 -0.016931925 -0.017052126     0.140237644  0.000331092  0.000333448
    -0.016903419  7.153236607  0.006342890     0.000331650  0.139797751 -0.000123198
    -0.017023055  0.006344102  7.153062820     0.000334017 -0.000123175  0.139801158

  length of vectors

 
 k-points in units of 2pi/SCALE and weight: Sys                                     
   0.00000000  0.00000000  0.00000000       0.005
   0.02337294  0.00005518  0.00005557       0.009
   0.04674588  0.00011036  0.00011115       0.009
   0.07011882  0.00016555  0.00016672       0.005
   0.00005528  0.02329963 -0.00002053       0.009
   0.02342822  0.02335481  0.00003504       0.009
   0.04680116  0.02340999  0.00009062       0.009
   0.07017410  0.02346517  0.00014619       0.009
  -0.04669061  0.02318926 -0.00013168       0.009
  -0.02331767  0.02324444 -0.00007611       0.009
   0.00011055  0.04659925 -0.00004107       0.009
   0.02348349  0.04665443  0.00001451       0.009
   0.04685643  0.04670961  0.00007008       0.009
   0.07022937  0.04676480  0.00012566       0.009
  -0.04663533  0.04648889 -0.00015222       0.009
  -0.02326239  0.04654407 -0.00009664       0.009
   0.00016583  0.06989888 -0.00006160       0.005
   0.02353877  0.06995406 -0.00000602       0.009
   0.04691171  0.07000924  0.00004955       0.009
   0.07028465  0.07006442  0.00010512       0.005
   0.00005567 -0.00002053  0.02330019       0.009
   0.02342861  0.00003465  0.02335577       0.009
   0.04680155  0.00008983  0.02341134       0.009
   0.07017449  0.00014502  0.02346692       0.009
  -0.04669021 -0.00013089  0.02318904       0.009
  -0.02331727 -0.00007571  0.02324462       0.009
   0.00011094  0.02327910  0.02327966       0.009
   0.02348389  0.02333428  0.02333523       0.009
   0.04685683  0.02338946  0.02339081       0.009
   0.07022977  0.02344464  0.02344638       0.009
  -0.04663494  0.02316873  0.02316851       0.009
  -0.02326200  0.02322391  0.02322409       0.009
   0.00016622  0.04657872  0.02325913       0.009
   0.02353916  0.04663390  0.02331470       0.009
   0.04691210  0.04668909  0.02337028       0.009
   0.07028504  0.04674427  0.02342585       0.009
  -0.04657966  0.04646836  0.02314798       0.009
  -0.02320672  0.04652354  0.02320355       0.009
   0.00022149  0.06987835  0.02323859       0.009
   0.02359444  0.06993353  0.02329417       0.009
   0.04696738  0.06998871  0.02334974       0.009
   0.07034032  0.07004389  0.02340532       0.009
  -0.04652439  0.06976798  0.02312744       0.009
  -0.02315145  0.06982316  0.02318302       0.009
  -0.00005488 -0.04661978  0.02334126       0.009
   0.02331806 -0.04656460  0.02339683       0.009
   0.04669100 -0.04650942  0.02345241       0.009
   0.07006394 -0.04645423  0.02350798       0.009
  -0.04680076 -0.04673014  0.02323011       0.009
  -0.02342782 -0.04667496  0.02328568       0.009
   0.00000039 -0.02332015  0.02332073       0.009
   0.02337334 -0.02326497  0.02337630       0.009
   0.04674628 -0.02320979  0.02343188       0.009
   0.07011922 -0.02315461  0.02348745       0.009
  -0.04674549 -0.02343052  0.02320958       0.009
  -0.02337255 -0.02337534  0.02326515       0.009
   0.00011134 -0.00004106  0.04660039       0.009
   0.02348428  0.00001412  0.04665596       0.009
   0.04685722  0.00006931  0.04671154       0.009
   0.07023016  0.00012449  0.04676711       0.009
  -0.04663454 -0.00015142  0.04648924       0.009
  -0.02326160 -0.00009624  0.04654481       0.009
   0.00016661  0.02325857  0.04657985       0.009
   0.02353955  0.02331375  0.04663543       0.009
   0.04691250  0.02336893  0.04669100       0.009
   0.07028544  0.02342411  0.04674658       0.009
  -0.04657927  0.02314820  0.04646870       0.009
  -0.02320633  0.02320338  0.04652428       0.009
   0.00022189  0.04655819  0.04655932       0.009
   0.02359483  0.04661337  0.04661489       0.009
   0.04696777  0.04666856  0.04667047       0.009
   0.07034071  0.04672374  0.04672604       0.009
  -0.04652399  0.04644783  0.04644817       0.009
  -0.02315105  0.04650301  0.04650375       0.009
   0.00027716  0.06985782  0.04653879       0.009
   0.02365010  0.06991300  0.04659436       0.009
   0.04702305  0.06996818  0.04664994       0.009
   0.07039599  0.07002336  0.04670551       0.009
  -0.04646872  0.06974745  0.04642764       0.009
  -0.02309578  0.06980264  0.04648321       0.009
   0.00000079 -0.04664031  0.04664145       0.009
   0.02337373 -0.04658513  0.04669703       0.009
   0.04674667 -0.04652994  0.04675260       0.009
   0.07011961 -0.04647476  0.04680818       0.009
  -0.04674509 -0.04675067  0.04653030       0.009
  -0.02337215 -0.04669549  0.04658588       0.009
   0.00005606 -0.02334068  0.04662092       0.009
   0.02342900 -0.02328550  0.04667649       0.009
   0.04680195 -0.02323032  0.04673207       0.009
   0.07017489 -0.02317514  0.04678764       0.009
  -0.04668982 -0.02345105  0.04650977       0.009
  -0.02331688 -0.02339587  0.04656534       0.009
   0.00016701 -0.00006159  0.06990058       0.005
   0.02353995 -0.00000641  0.06995615       0.009
   0.04691289  0.00004878  0.07001173       0.009
   0.07028583  0.00010396  0.07006730       0.005
   0.00022228  0.02323804  0.06988005       0.009
   0.02359522  0.02329322  0.06993562       0.009
   0.04696817  0.02334840  0.06999120       0.009
   0.07034111  0.02340358  0.07004677       0.009
  -0.04652360  0.02312767  0.06976890       0.009
  -0.02315066  0.02318286  0.06982447       0.009
   0.00027756  0.04653766  0.06985951       0.009
   0.02365050  0.04659284  0.06991509       0.009
   0.04702344  0.04664803  0.06997066       0.009
   0.07039638  0.04670321  0.07002624       0.009
  -0.04646832  0.04642730  0.06974836       0.009
  -0.02309538  0.04648248  0.06980394       0.009
   0.00033283  0.06983729  0.06983898       0.005
   0.02370577  0.06989247  0.06989455       0.009
   0.04707872  0.06994765  0.06995013       0.009
   0.07045166  0.07000283  0.07000570       0.005
 
 k-points in reciprocal lattice and weights: Sys                                     
   0.00000000  0.00000000  0.00000000       0.005
   0.16666667  0.00000000  0.00000000       0.009
   0.33333333 -0.00000000  0.00000000       0.009
   0.50000000  0.00000000  0.00000000       0.005
   0.00000000  0.16666667  0.00000000       0.009
   0.16666667  0.16666667  0.00000000       0.009
   0.33333333  0.16666667  0.00000000       0.009
   0.50000000  0.16666667 -0.00000000       0.009
  -0.33333333  0.16666667 -0.00000000       0.009
  -0.16666667  0.16666667  0.00000000       0.009
   0.00000000  0.33333333  0.00000000       0.009
   0.16666667  0.33333333 -0.00000000       0.009
   0.33333333  0.33333333  0.00000000       0.009
   0.50000000  0.33333333 -0.00000000       0.009
  -0.33333333  0.33333333  0.00000000       0.009
  -0.16666667  0.33333333 -0.00000000       0.009
   0.00000000  0.50000000 -0.00000000       0.005
   0.16666667  0.50000000  0.00000000       0.009
   0.33333333  0.50000000  0.00000000       0.009
   0.50000000  0.50000000  0.00000000       0.005
   0.00000000 -0.00000000  0.16666667       0.009
   0.16666667 -0.00000000  0.16666667       0.009
   0.33333333  0.00000000  0.16666667       0.009
   0.50000000  0.00000000  0.16666667       0.009
  -0.33333333 -0.00000000  0.16666667       0.009
  -0.16666667 -0.00000000  0.16666667       0.009
  -0.00000000  0.16666667  0.16666667       0.009
   0.16666667  0.16666667  0.16666667       0.009
   0.33333333  0.16666667  0.16666667       0.009
   0.50000000  0.16666667  0.16666667       0.009
  -0.33333333  0.16666667  0.16666667       0.009
  -0.16666667  0.16666667  0.16666667       0.009
   0.00000000  0.33333333  0.16666667       0.009
   0.16666667  0.33333333  0.16666667       0.009
   0.33333333  0.33333333  0.16666667       0.009
   0.50000000  0.33333333  0.16666667       0.009
  -0.33333333  0.33333333  0.16666667       0.009
  -0.16666667  0.33333333  0.16666667       0.009
   0.00000000  0.50000000  0.16666667       0.009
   0.16666667  0.50000000  0.16666667       0.009
   0.33333333  0.50000000  0.16666667       0.009
   0.50000000  0.50000000  0.16666667       0.009
  -0.33333333  0.50000000  0.16666667       0.009
  -0.16666667  0.50000000  0.16666667       0.009
   0.00000000 -0.33333333  0.16666667       0.009
   0.16666667 -0.33333333  0.16666667       0.009
   0.33333333 -0.33333333  0.16666667       0.009
   0.50000000 -0.33333333  0.16666667       0.009
  -0.33333333 -0.33333333  0.16666667       0.009
  -0.16666667 -0.33333333  0.16666667       0.009
  -0.00000000 -0.16666667  0.16666667       0.009
   0.16666667 -0.16666667  0.16666667       0.009
   0.33333333 -0.16666667  0.16666667       0.009
   0.50000000 -0.16666667  0.16666667       0.009
  -0.33333333 -0.16666667  0.16666667       0.009
  -0.16666667 -0.16666667  0.16666667       0.009
   0.00000000 -0.00000000  0.33333333       0.009
   0.16666667  0.00000000  0.33333333       0.009
   0.33333333 -0.00000000  0.33333333       0.009
   0.50000000  0.00000000  0.33333333       0.009
  -0.33333333 -0.00000000  0.33333333       0.009
  -0.16666667 -0.00000000  0.33333333       0.009
   0.00000000  0.16666667  0.33333333       0.009
   0.16666667  0.16666667  0.33333333       0.009
   0.33333333  0.16666667  0.33333333       0.009
   0.50000000  0.16666667  0.33333333       0.009
  -0.33333333  0.16666667  0.33333333       0.009
  -0.16666667  0.16666667  0.33333333       0.009
  -0.00000000  0.33333333  0.33333333       0.009
   0.16666667  0.33333333  0.33333333       0.009
   0.33333333  0.33333333  0.33333333       0.009
   0.50000000  0.33333333  0.33333333       0.009
  -0.33333333  0.33333333  0.33333333       0.009
  -0.16666667  0.33333333  0.33333333       0.009
   0.00000000  0.50000000  0.33333333       0.009
   0.16666667  0.50000000  0.33333333       0.009
   0.33333333  0.50000000  0.33333333       0.009
   0.50000000  0.50000000  0.33333333       0.009
  -0.33333333  0.50000000  0.33333333       0.009
  -0.16666667  0.50000000  0.33333333       0.009
  -0.00000000 -0.33333333  0.33333333       0.009
   0.16666667 -0.33333333  0.33333333       0.009
   0.33333333 -0.33333333  0.33333333       0.009
   0.50000000 -0.33333333  0.33333333       0.009
  -0.33333333 -0.33333333  0.33333333       0.009
  -0.16666667 -0.33333333  0.33333333       0.009
   0.00000000 -0.16666667  0.33333333       0.009
   0.16666667 -0.16666667  0.33333333       0.009
   0.33333333 -0.16666667  0.33333333       0.009
   0.50000000 -0.16666667  0.33333333       0.009
  -0.33333333 -0.16666667  0.33333333       0.009
  -0.16666667 -0.16666667  0.33333333       0.009
   0.00000000 -0.00000000  0.50000000       0.005
   0.16666667  0.00000000  0.50000000       0.009
   0.33333333  0.00000000  0.50000000       0.009
   0.50000000  0.00000000  0.50000000       0.005
  -0.00000000  0.16666667  0.50000000       0.009
   0.16666667  0.16666667  0.50000000       0.009
   0.33333333  0.16666667  0.50000000       0.009
   0.50000000  0.16666667  0.50000000       0.009
  -0.33333333  0.16666667  0.50000000       0.009
  -0.16666667  0.16666667  0.50000000       0.009
   0.00000000  0.33333333  0.50000000       0.009
   0.16666667  0.33333333  0.50000000       0.009
   0.33333333  0.33333333  0.50000000       0.009
   0.50000000  0.33333333  0.50000000       0.009
  -0.33333333  0.33333333  0.50000000       0.009
  -0.16666667  0.33333333  0.50000000       0.009
   0.00000000  0.50000000  0.50000000       0.005
   0.16666667  0.50000000  0.50000000       0.009
   0.33333333  0.50000000  0.50000000       0.009
   0.50000000  0.50000000  0.50000000       0.005
 
 position of ions in fractional coordinates (direct lattice) 
   0.99901913  0.00035299  0.24893142
   0.00190767  0.00004103  0.75003440
   0.99949432  0.49960721  0.24961124
   0.99903954  0.49892689  0.75034735
   0.49960844  0.00124859  0.24982656
   0.50588225  0.99954788  0.74954969
   0.49855939  0.49988509  0.24986813
   0.49963167  0.49982739  0.75126765
   0.12399296  0.12539005  0.37623502
   0.12689374  0.12606230  0.87606810
   0.12470844  0.62503272  0.37504361
   0.12400713  0.62622371  0.87539071
   0.62461151  0.12489638  0.37496752
   0.63487913  0.11418087  0.86418715
   0.62459238  0.62574789  0.37574517
   0.62463432  0.62499920  0.87487986
   0.00000120  0.25009691  0.00009267
   0.99992169  0.24952847  0.49977687
   0.99992094  0.74976802  0.99952671
   0.00019732  0.74982738  0.49982623
   0.50001991  0.25007638  0.50039345
   0.50002030  0.75040258  0.00007209
   0.50018633  0.74968749  0.49969483
   0.12525722  0.37483534  0.12483832
   0.12471258  0.37514182  0.62514551
   0.12468219  0.87512728  0.12515014
   0.12591858  0.87527302  0.62527714
   0.62601454  0.38354851  0.13348654
   0.62414405  0.37287986  0.62675327
   0.62414005  0.87675148  0.12287883
   0.62594423  0.87324501  0.62323170
   0.25359750  0.00346947  0.00064349
   0.25103193  0.00027545  0.50117647
   0.25058666  0.50062729  0.00011077
   0.24981509  0.50022644  0.50053600
   0.74984256  0.99981605  0.99415361
   0.75062189  0.99953415  0.49884524
   0.74533151  0.49685622  0.99943646
   0.74969182  0.49884724  0.50042931
   0.36698200  0.11799056  0.13866929
   0.37764792  0.12594695  0.62721114
   0.37442972  0.62613968  0.12527968
   0.37525835  0.62633823  0.62434623
   0.87262324  0.12587892  0.12225251
   0.87672532  0.12429015  0.62367704
   0.87446383  0.62482918  0.12494312
   0.87505110  0.62415865  0.62492746
   0.25057026  0.25008742  0.25062482
   0.25364406  0.25063720  0.75351799
   0.24980001  0.75053387  0.25024668
   0.25103592  0.75115819  0.75027346
   0.74530520  0.24945367  0.24681255
   0.74984006  0.24415491  0.74981980
   0.74968721  0.75043119  0.24884700
   0.75063751  0.74886339  0.74951236
   0.37443596  0.37526817  0.37611741
   0.36705487  0.38866470  0.86806719
   0.37524783  0.87433663  0.37635721
   0.37763589  0.87719876  0.87594144
   0.87445810  0.37494564  0.37482005
   0.87263214  0.37226388  0.87587008
   0.87503721  0.87493651  0.37415586
   0.87673419  0.87368147  0.87428040
 
 position of ions in cartesian coordinates  (Angst):
   7.11959558 -0.01281103  1.76358891
   0.00083468  0.00501949  5.36501088
   7.11453338  3.55846878  1.77161030
   7.10277784  3.55678671  5.35341059
   3.55835067  0.00205705  1.77851365
   3.57770667  7.14619215  5.35928971
   3.54244075  3.56893991  1.78199165
   3.54155262  3.57169000  5.36851523
   0.87564897  0.89723214  2.68991372
   0.88781390  0.90516278  6.26520597
   0.87232553  4.47127472  2.68454846
   0.85878708  4.48298025  6.26358221
   4.44550643  0.88521631  2.67230745
   4.51057623  0.81149551  6.17148318
   4.43689065  4.46793091  2.68104723
   4.42870561  4.46574121  6.25138356
  -0.00422053  1.78900293  0.00224917
   7.11754946  1.77117625  3.55946732
   7.10058108  5.35267860  7.13738225
  -0.01977614  5.36686029  3.58004110
   3.55281334  1.78356374  3.57240560
   3.55287592  5.35934132 -0.00325099
   3.54556681  5.35739301  3.57057449
   0.88472727  2.67995702  0.89321801
   0.87232157  2.68533257  4.47195801
   0.87216484  6.25867537  0.89863154
   0.87246517  6.26286977  4.47605121
   4.45524987  2.73386043  0.94659556
   4.43369511  2.66070609  4.47492769
   4.43372695  6.26182244  0.87387824
   4.43813395  6.23988358  4.45288070
   1.80829193  0.02052816  0.00030057
   1.78153068  0.00089946  3.58066788
   1.77842759  3.57686325 -0.00030524
   1.76441362  3.57718372  3.57927849
   5.31317865  7.14553153  7.10479854
   5.32717230  7.14035955  3.56181156
   5.28942288  3.54785071  7.13947381
   5.32897651  3.55885337  3.56998257
   2.61253252  0.83868043  0.98640070
   2.68013850  0.89851309  4.48083987
   2.65727945  4.47338022  0.89372013
   2.65468929  4.47795265  4.46356163
   6.21832213  0.88644212  0.86039822
   6.23906445  0.87818890  4.44703936
   6.22296732  4.45553729  0.88277775
   6.21865514  4.45390281  4.45918285
   1.77828111  1.78628187  1.79004860
   1.79162977  1.79335292  5.38722614
   1.76433572  5.36610437  1.79053113
   1.76462628  5.37372156  5.36723703
   5.30622915  1.77334745  1.75433891
   5.33009333  1.73855852  5.35227045
   5.32897369  5.35689694  1.77199436
   5.32725378  5.34884227  5.35325897
   2.65729453  2.68042823  2.68638679
   2.59606027  2.77950273  6.20554537
   2.65464374  6.25037076  2.69125384
   2.66311980  6.27397321  6.26478859
   6.22289669  2.66964652  2.66857821
   6.20139200  2.65367289  6.25263473
   6.21858597  6.24618548  2.66698874
   6.22219443  6.24035198  6.24437409
 


--------------------------------------------------------------------------------------------------------


 k-point  1 :   0.0000 0.0000 0.0000  plane waves:    9799
 k-point  2 :   0.1667 0.0000 0.0000  plane waves:    9812
 k-point  3 :   0.3333-0.0000 0.0000  plane waves:    9826
 k-point  4 :   0.5000 0.0000 0.0000  plane waves:    9866
 k-point  5 :   0.0000 0.1667 0.0000  plane waves:    9820
 k-point  6 :   0.1667 0.1667 0.0000  plane waves:    9816
 k-point  7 :   0.3333 0.1667 0.0000  plane waves:    9817
 k-point  8 :   0.5000 0.1667-0.0000  plane waves:    9846
 k-point  9 :  -0.3333 0.1667-0.0000  plane waves:    9821
 k-point 10 :  -0.1667 0.1667 0.0000  plane waves:    9828
 k-point 11 :   0.0000 0.3333 0.0000  plane waves:    9830
 k-point 12 :   0.1667 0.3333-0.0000  plane waves:    9819
 k-point 13 :   0.3333 0.3333 0.0000  plane waves:    9826
 k-point 14 :   0.5000 0.3333-0.0000  plane waves:    9837
 k-point 15 :  -0.3333 0.3333 0.0000  plane waves:    9821
 k-point 16 :  -0.1667 0.3333-0.0000  plane waves:    9822
 k-point 17 :   0.0000 0.5000-0.0000  plane waves:    9862
 k-point 18 :   0.1667 0.5000 0.0000  plane waves:    9838
 k-point 19 :   0.3333 0.5000 0.0000  plane waves:    9832
 k-point 20 :   0.5000 0.5000 0.0000  plane waves:    9802
 k-point 21 :   0.0000-0.0000 0.1667  plane waves:    9820
 k-point 22 :   0.1667-0.0000 0.1667  plane waves:    9816
 k-point 23 :   0.3333 0.0000 0.1667  plane waves:    9817
 k-point 24 :   0.5000 0.0000 0.1667  plane waves:    9845
 k-point 25 :  -0.3333-0.0000 0.1667  plane waves:    9821
 k-point 26 :  -0.1667-0.0000 0.1667  plane waves:    9829
 k-point 27 :  -0.0000 0.1667 0.1667  plane waves:    9820
 k-point 28 :   0.1667 0.1667 0.1667  plane waves:    9829
 k-point 29 :   0.3333 0.1667 0.1667  plane waves:    9822
 k-point 30 :   0.5000 0.1667 0.1667  plane waves:    9842
 k-point 31 :  -0.3333 0.1667 0.1667  plane waves:    9833
 k-point 32 :  -0.1667 0.1667 0.1667  plane waves:    9837
 k-point 33 :   0.0000 0.3333 0.1667  plane waves:    9819
 k-point 34 :   0.1667 0.3333 0.1667  plane waves:    9817
 k-point 35 :   0.3333 0.3333 0.1667  plane waves:    9824
 k-point 36 :   0.5000 0.3333 0.1667  plane waves:    9821
 k-point 37 :  -0.3333 0.3333 0.1667  plane waves:    9827
 k-point 38 :  -0.1667 0.3333 0.1667  plane waves:    9828
 k-point 39 :   0.0000 0.5000 0.1667  plane waves:    9839
 k-point 40 :   0.1667 0.5000 0.1667  plane waves:    9826
 k-point 41 :   0.3333 0.5000 0.1667  plane waves:    9813
 k-point 42 :   0.5000 0.5000 0.1667  plane waves:    9809
 k-point 43 :  -0.3333 0.5000 0.1667  plane waves:    9819
 k-point 44 :  -0.1667 0.5000 0.1667  plane waves:    9846
 k-point 45 :   0.0000-0.3333 0.1667  plane waves:    9821
 k-point 46 :   0.1667-0.3333 0.1667  plane waves:    9830
 k-point 47 :   0.3333-0.3333 0.1667  plane waves:    9829
 k-point 48 :   0.5000-0.3333 0.1667  plane waves:    9809
 k-point 49 :  -0.3333-0.3333 0.1667  plane waves:    9821
 k-point 50 :  -0.1667-0.3333 0.1667  plane waves:    9829
 k-point 51 :  -0.0000-0.1667 0.1667  plane waves:    9824
 k-point 52 :   0.1667-0.1667 0.1667  plane waves:    9823
 k-point 53 :   0.3333-0.1667 0.1667  plane waves:    9830
 k-point 54 :   0.5000-0.1667 0.1667  plane waves:    9838
 k-point 55 :  -0.3333-0.1667 0.1667  plane waves:    9831
 k-point 56 :  -0.1667-0.1667 0.1667  plane waves:    9823
 k-point 57 :   0.0000-0.0000 0.3333  plane waves:    9830
 k-point 58 :   0.1667 0.0000 0.3333  plane waves:    9819
 k-point 59 :   0.3333-0.0000 0.3333  plane waves:    9828
 k-point 60 :   0.5000 0.0000 0.3333  plane waves:    9837
 k-point 61 :  -0.3333-0.0000 0.3333  plane waves:    9821
 k-point 62 :  -0.1667-0.0000 0.3333  plane waves:    9822
 k-point 63 :   0.0000 0.1667 0.3333  plane waves:    9819
 k-point 64 :   0.1667 0.1667 0.3333  plane waves:    9817
 k-point 65 :   0.3333 0.1667 0.3333  plane waves:    9824
 k-point 66 :   0.5000 0.1667 0.3333  plane waves:    9819
 k-point 67 :  -0.3333 0.1667 0.3333  plane waves:    9827
 k-point 68 :  -0.1667 0.1667 0.3333  plane waves:    9828
 k-point 69 :  -0.0000 0.3333 0.3333  plane waves:    9813
 k-point 70 :   0.1667 0.3333 0.3333  plane waves:    9821
 k-point 71 :   0.3333 0.3333 0.3333  plane waves:    9821
 k-point 72 :   0.5000 0.3333 0.3333  plane waves:    9818
 k-point 73 :  -0.3333 0.3333 0.3333  plane waves:    9821
 k-point 74 :  -0.1667 0.3333 0.3333  plane waves:    9828
 k-point 75 :   0.0000 0.5000 0.3333  plane waves:    9828
 k-point 76 :   0.1667 0.5000 0.3333  plane waves:    9811
 k-point 77 :   0.3333 0.5000 0.3333  plane waves:    9820
 k-point 78 :   0.5000 0.5000 0.3333  plane waves:    9816
 k-point 79 :  -0.3333 0.5000 0.3333  plane waves:    9817
 k-point 80 :  -0.1667 0.5000 0.3333  plane waves:    9807
 k-point 81 :  -0.0000-0.3333 0.3333  plane waves:    9805
 k-point 82 :   0.1667-0.3333 0.3333  plane waves:    9820
 k-point 83 :   0.3333-0.3333 0.3333  plane waves:    9831
 k-point 84 :   0.5000-0.3333 0.3333  plane waves:    9814
 k-point 85 :  -0.3333-0.3333 0.3333  plane waves:    9832
 k-point 86 :  -0.1667-0.3333 0.3333  plane waves:    9820
 k-point 87 :   0.0000-0.1667 0.3333  plane waves:    9821
 k-point 88 :   0.1667-0.1667 0.3333  plane waves:    9829
 k-point 89 :   0.3333-0.1667 0.3333  plane waves:    9820
 k-point 90 :   0.5000-0.1667 0.3333  plane waves:    9810
 k-point 91 :  -0.3333-0.1667 0.3333  plane waves:    9828
 k-point 92 :  -0.1667-0.1667 0.3333  plane waves:    9830
 k-point 93 :   0.0000-0.0000 0.5000  plane waves:    9862
 k-point 94 :   0.1667 0.0000 0.5000  plane waves:    9838
 k-point 95 :   0.3333 0.0000 0.5000  plane waves:    9832
 k-point 96 :   0.5000 0.0000 0.5000  plane waves:    9802
 k-point 97 :  -0.0000 0.1667 0.5000  plane waves:    9839
 k-point 98 :   0.1667 0.1667 0.5000  plane waves:    9826
 k-point 99 :   0.3333 0.1667 0.5000  plane waves:    9812
 k-point ** :   0.5000 0.1667 0.5000  plane waves:    9809
 k-point ** :  -0.3333 0.1667 0.5000  plane waves:    9820
 k-point ** :  -0.1667 0.1667 0.5000  plane waves:    9846
 k-point ** :   0.0000 0.3333 0.5000  plane waves:    9829
 k-point ** :   0.1667 0.3333 0.5000  plane waves:    9811
 k-point ** :   0.3333 0.3333 0.5000  plane waves:    9820
 k-point ** :   0.5000 0.3333 0.5000  plane waves:    9816
 k-point ** :  -0.3333 0.3333 0.5000  plane waves:    9817
 k-point ** :  -0.1667 0.3333 0.5000  plane waves:    9807
 k-point ** :   0.0000 0.5000 0.5000  plane waves:    9790
 k-point ** :   0.1667 0.5000 0.5000  plane waves:    9814
 k-point ** :   0.3333 0.5000 0.5000  plane waves:    9832
 k-point ** :   0.5000 0.5000 0.5000  plane waves:    9856

 maximum and minimum number of plane-waves per node :       845      786

 maximum number of plane-waves:      9866
 maximum index in each direction: 
   IXMAX=   13   IYMAX=   13   IZMAX=   13
   IXMIN=  -13   IYMIN=  -13   IZMIN=  -13


 parallel 3D FFT for wavefunctions:
    minimum data exchange during FFTs selected (reduces bandwidth)
 parallel 3D FFT for charge:
    minimum data exchange during FFTs selected (reduces bandwidth)


 total amount of memory used by VASP MPI-rank0   128628. kBytes
=======================================================================

   base      :      30000. kBytes
   nonl-proj :      19090. kBytes
   fftplans  :        683. kBytes
   grid      :       1749. kBytes
   one-center:         36. kBytes
   wavefun   :      77070. kBytes
 
     INWAV:  cpu time   16.0428: real time   16.1830
 Broyden mixing: mesh for mixing (old mesh)
   NGX = 27   NGY = 27   NGZ = 27
  (NGX  = 80   NGY  = 80   NGZ  = 80)
  gives a total of  19683 points

 initial charge density was supplied:
 number of electron     252.9999711 magnetization       0.9999132
 keeping initial charge density in first step


--------------------------------------------------------------------------------------------------------


 Maximum index for augmentation-charges          191 (set IRDMAX)


--------------------------------------------------------------------------------------------------------


 First call to EWALD:  gamma=   0.248
 Maximum number of real-space cells 3x 3x 3
 Maximum number of reciprocal cells 3x 3x 3

    FEWALD:  cpu time    0.0019: real time    0.0020


--------------------------------------- Iteration      1(   1)  ---------------------------------------


    POTLOK:  cpu time    0.0149: real time    0.0313
    SETDIJ:  cpu time    0.0047: real time    0.0047
     EDDAV:  cpu time   19.4772: real time   19.6443
 BZINTS: Fermi energy: 10.663659;253.000000 electrons
         Band energy: 119.763074;  BLOECHL correction:  0.000000
       DOS:  cpu time    0.1220: real time    0.1290
    CHARGE:  cpu time    0.4427: real time    0.4452
    MIXING:  cpu time    0.0020: real time    0.0025
    --------------------------------------------
      LOOP:  cpu time   20.0636: real time   20.2571

 eigenvalue-minimisations  : 55976
 total energy-change (2. order) :-0.5661884E+03  (-0.4508692E-07)
 number of electron     252.9999711 magnetization       0.9999737
 augmentation part        6.0392503 magnetization       0.0550179

 Broyden mixing:
  rms(total) = 0.48839E-03    rms(broyden)= 0.48830E-03
  rms(prec ) = 0.75995E-03
  weight for this iteration     100.00

 Free energy of the ion-electron system (eV)
  ---------------------------------------------------
  alpha Z        PSCENC =       897.84494919
  Ewald energy   TEWEN  =    -10877.48174646
  -Hartree energ DENC   =      -943.76475019
  -exchange      EXHF   =         0.00000000
  -V(xc)+E(xc)   XCENC  =       892.51353775
  PAW double counting   =     23871.81505067   -23914.64598439
  entropy T*S    EENTRO =         0.00000000
  eigenvalues    EBANDS =       119.76307351
  atomic energy  EATOM  =      9387.76745573
  Solvation  Ediel_sol  =         0.00000000
  ---------------------------------------------------
  free energy    TOTEN  =      -566.18841419 eV

  energy without entropy =     -566.18841419  energy(sigma->0) =     -566.18841419


--------------------------------------------------------------------------------------------------------




--------------------------------------- Iteration      1(   2)  ---------------------------------------


    POTLOK:  cpu time    0.0107: real time    0.0118
    SETDIJ:  cpu time    0.0036: real time    0.0036
     EDDAV:  cpu time   23.6989: real time   23.8773
 BZINTS: Fermi energy: 10.663659;253.000000 electrons
         Band energy: 119.764243;  BLOECHL correction:  0.000000
       DOS:  cpu time    0.1193: real time    0.1196
    --------------------------------------------
      LOOP:  cpu time   23.8325: real time   24.0124

 eigenvalue-minimisations  : 77992
 total energy-change (2. order) :-0.1783155E-06  (-0.5540423E-06)
 number of electron     252.9999711 magnetization       0.9999737
 augmentation part        6.0392503 magnetization       0.0550179

 Free energy of the ion-electron system (eV)
  ---------------------------------------------------
  alpha Z        PSCENC =       897.84494919
  Ewald energy   TEWEN  =    -10877.48174646
  -Hartree energ DENC   =      -943.76630384
  -exchange      EXHF   =         0.00000000
  -V(xc)+E(xc)   XCENC  =       892.51387770
  PAW double counting   =     23871.80243822   -23914.63332806
  entropy T*S    EENTRO =         0.00000000
  eigenvalues    EBANDS =       119.76424315
  atomic energy  EATOM  =      9387.76745573
  Solvation  Ediel_sol  =         0.00000000
  ---------------------------------------------------
  free energy    TOTEN  =      -566.18841437 eV

  energy without entropy =     -566.18841437  energy(sigma->0) =     -566.18841437


--------------------------------------------------------------------------------------------------------




 average (electrostatic) potential at core
  the test charge radii are     0.6991  0.7089  0.6991
  (the norm of the test charge is              1.0000)
       1 -45.8137       2 -45.7505       3 -45.7758       4 -45.8138       5 -45.6669
       6 -46.3154       7 -45.7030       8 -45.6673       9 -45.7755      10 -45.7102
      11 -45.7886      12 -45.7757      13 -45.7085      14 -59.8380      15 -45.8382
      16 -45.7083      17 -45.7428      18 -45.7580      19 -45.7577      20 -45.7958
      21 -45.7367      22 -45.7367      23 -45.7079      24 -45.7072      25 -45.8019
      26 -45.8014      27 -45.7764      28 -45.5907      29 -45.7944      30 -45.7942
      31 -45.6762      32 -45.7325      33 -45.7960      34 -45.6299      35 -45.7440
      36 -46.3303      37 -45.7465      38 -45.8087      39 -45.8266      40 -45.0529
      41 -45.7833      42 -45.6994      43 -45.7567      44 -45.8165      45 -45.6849
      46 -45.8590      47 -45.7935      48 -45.6297      49 -45.7334      50 -45.7438
      51 -45.7960      52 -45.8092      53 -46.3304      54 -45.8264      55 -45.7464
      56 -45.6996      57 -45.0558      58 -45.7564      59 -45.7832      60 -45.8593
      61 -45.8166      62 -45.7934      63 -45.6848
 
 
 
 E-fermi :  10.6637     XC(G=0): -13.1323     alpha+bet :-17.2687


 spin component 1

 k-point     1 :       0.0000    0.0000    0.0000
  band No.  band energies     occupation 
      1     -12.0819      1.00000
      2     -10.5144      1.00000
      3      -9.7779      1.00000
      4      -9.7773      1.00000
      5      -9.7451      1.00000
      6      -9.7049      1.00000
      7      -9.4332      1.00000
      8      -8.4755      1.00000
      9      -7.6581      1.00000
     10      -7.6531      1.00000
     11      -7.6219      1.00000
     12      -7.6140      1.00000
     13      -7.6045      1.00000
     14      -7.6012      1.00000
     15      -7.5097      1.00000
     16      -7.5061      1.00000
     17      -7.4722      1.00000
     18      -7.4375      1.00000
     19      -6.8992      1.00000
     20      -6.5205      1.00000
     21      -6.2604      1.00000
     22      -6.2378      1.00000
     23      -5.8125      1.00000
     24      -3.8944      1.00000
     25      -3.8936      1.00000
     26      -3.8852      1.00000
     27      -3.8510      1.00000
     28      -3.6934      1.00000
     29      -3.4017      1.00000
     30      -3.3864      1.00000
     31      -3.2729      1.00000
     32      -3.2261      1.00000
     33      -3.1402      1.00000
     34      -2.9346      1.00000
     35      -2.7240      1.00000
     36      -2.7217      1.00000
     37      -2.6345      1.00000
     38      -2.6162      1.00000
     39      -2.5812      1.00000
     40      -2.5682      1.00000
     41      -2.5368      1.00000
     42      -2.4961      1.00000
     43      -2.3729      1.00000
     44      -2.3373      1.00000
     45      -0.5803      1.00000
     46       0.3595      1.00000
     47       0.3717      1.00000
     48       0.5029      1.00000
     49       0.6278      1.00000
     50       0.6355      1.00000
     51       0.6393      1.00000
     52       0.6831      1.00000
     53       0.7067      1.00000
     54       0.7177      1.00000
     55       0.8381      1.00000
     56       0.8399      1.00000
     57       0.9601      1.00000
     58       0.9674      1.00000
     59       1.0473      1.00000
     60       1.0919      1.00000
     61       1.0975      1.00000
     62       1.1025      1.00000
     63       1.1340      1.00000
     64       1.1631      1.00000
     65       1.1784      1.00000
     66       1.3727      1.00000
     67       1.4225      1.00000
     68       1.4339      1.00000
     69       1.4435      1.00000
     70       1.6533      1.00000
     71       1.6660      1.00000
     72       1.7182      1.00000
     73       1.7666      1.00000
     74       1.7839      1.00000
     75       1.8199      1.00000
     76       1.8256      1.00000
     77       1.8417      1.00000
     78       2.4318      1.00000
     79       2.4320      1.00000
     80       2.4863      1.00000
     81       3.0184      1.00000
     82       3.0449      1.00000
     83       3.1990      1.00000
     84       3.3439      1.00000
     85       3.3728      1.00000
     86       3.4367      1.00000
     87       3.8139      1.00000
     88       4.7492      1.00000
     89       4.7662      1.00000
     90       4.7949      1.00000
     91       4.8729      1.00000
     92       4.8983      1.00000
     93       5.0558      1.00000
     94       5.0795      1.00000
     95       5.1483      1.00000
     96       5.1882      1.00000
     97       5.2029      1.00000
     98       5.2519      1.00000
     99       5.2677      1.00000
    100       5.2932      1.00000
    101       5.3762      1.00000
    102       5.6678      1.00000
    103       5.6892      1.00000
    104       5.7226      1.00000
    105       6.0935      1.00000
    106       6.1282      1.00000
    107       6.2714      1.00000
    108       6.3316      1.00000
    109       6.3391      1.00000
    110       6.3396      1.00000
    111       6.3699      1.00000
    112       6.3819      1.00000
    113       6.4331      1.00000
    114       6.4359      1.00000
    115       6.4626      1.00000
    116       6.4876      1.00000
    117       6.5037      1.00000
    118       6.5360      1.00000
    119       6.6207      1.00000
    120       6.6393      1.00000
    121       6.6872      1.00000
    122       7.0812      1.00000
    123       8.4513      1.00000
    124       8.7165      1.00000
    125       8.8674      1.00000
    126       9.9962      1.00000
    127      10.6620      1.00000
    128      11.3951      0.00000
    129      13.6904      0.00000
    130      13.7847      0.00000
    131      13.7909      0.00000
    132      13.9309      0.00000
    133      13.9758      0.00000
    134      13.9816      0.00000
    135      14.2208      0.00000
    136      14.2677      0.00000
    137      14.2818      0.00000
    138      14.3429      0.00000
    139      14.3987      0.00000
    140      14.6245      0.00000
    141      15.2205      0.00000
    142      15.2761      0.00000
    143      15.3442      0.00000
    144      17.0123      0.00000
    145      17.1818      0.00000
    146      17.2051      0.00000
    147      17.2242      0.00000
    148      17.3160      0.00000
    149      17.3224      0.00000
    150      17.3710      0.00000
    151      17.3927      0.00000
    152      17.4358      0.00000
    153      17.4518      0.00000
    154      17.4886      0.00000
    155      17.5507      0.00000
    156      17.7130      0.00000
    157      17.7728      0.00000
    158      17.7885      0.00000
    159      17.9180      0.00000
    160      18.0282      0.00000
    161      18.0494      0.00000
    162      18.0838      0.00000
    163      18.1033      0.00000
    164      18.2705      0.00000
    165      18.3233      0.00000
    166      18.3326      0.00000
    167      18.9290      0.00000
    168      19.0885      0.00000
    169      19.1325      0.00000
    170      19.2267      0.00000
    171      19.2913      0.00000
    172      19.3093      0.00000
    173      19.3200      0.00000
    174      19.3320      0.00000
    175      19.3841      0.00000
    176      19.3945      0.00000
    177      19.4348      0.00000
    178      19.5054      0.00000
    179      19.5113      0.00000
    180      19.6495      0.00000
    181      19.6652      0.00000
    182      19.7941      0.00000
    183      19.7982      0.00000
    184      19.8654      0.00000
    185      19.8940      0.00000
    186      19.9734      0.00000
    187      20.0001      0.00000
    188      20.0070      0.00000
    189      20.0679      0.00000
    190      20.0891      0.00000
    191      20.1156      0.00000
    192      20.2145      0.00000

 k-point     2 :       0.1667    0.0000    0.0000
  band No.  band energies     occupation 
      1     -12.0220      1.00000
      2     -10.6745      1.00000
      3     -10.1150      1.00000
      4      -9.7166      1.00000
      5      -9.6831      1.00000
      6      -9.4921      1.00000
      7      -9.0233      1.00000
      8      -8.5670      1.00000
      9      -8.2623      1.00000
     10      -8.2110      1.00000
     11      -8.0587      1.00000
     12      -7.7826      1.00000
     13      -7.5251      1.00000
     14      -7.4846      1.00000
     15      -7.3172      1.00000
     16      -7.0293      1.00000
     17      -6.8556      1.00000
     18      -6.8003      1.00000
     19      -6.6628      1.00000
     20      -6.5856      1.00000
     21      -6.4048      1.00000
     22      -6.3916      1.00000
     23      -5.8373      1.00000
     24      -4.5940      1.00000
     25      -3.8234      1.00000
     26      -3.6672      1.00000
     27      -3.6586      1.00000
     28      -3.5926      1.00000
     29      -3.5301      1.00000
     30      -3.3952      1.00000
     31      -3.3374      1.00000
     32      -3.3289      1.00000
     33      -3.2935      1.00000
     34      -3.2309      1.00000
     35      -3.1763      1.00000
     36      -2.9626      1.00000
     37      -2.7448      1.00000
     38      -2.7022      1.00000
     39      -2.5513      1.00000
     40      -2.3232      1.00000
     41      -2.0388      1.00000
     42      -2.0161      1.00000
     43      -1.9330      1.00000
     44      -1.9092      1.00000
     45      -0.7623      1.00000
     46      -0.2286      1.00000
     47      -0.1358      1.00000
     48      -0.0703      1.00000
     49       0.0115      1.00000
     50       0.0179      1.00000
     51       0.0750      1.00000
     52       0.1425      1.00000
     53       0.5360      1.00000
     54       0.6625      1.00000
     55       0.7152      1.00000
     56       0.7306      1.00000
     57       0.9227      1.00000
     58       1.0766      1.00000
     59       1.0931      1.00000
     60       1.1895      1.00000
     61       1.2109      1.00000
     62       1.2544      1.00000
     63       1.2622      1.00000
     64       1.3157      1.00000
     65       1.3822      1.00000
     66       1.4882      1.00000
     67       1.5521      1.00000
     68       1.5879      1.00000
     69       1.8585      1.00000
     70       1.9986      1.00000
     71       2.0160      1.00000
     72       2.0290      1.00000
     73       2.2771      1.00000
     74       2.3662      1.00000
     75       2.4475      1.00000
     76       2.4891      1.00000
     77       2.5281      1.00000
     78       2.5568      1.00000
     79       2.7407      1.00000
     80       2.7960      1.00000
     81       2.9510      1.00000
     82       2.9706      1.00000
     83       3.0476      1.00000
     84       3.1175      1.00000
     85       3.3633      1.00000
     86       3.4144      1.00000
     87       3.7888      1.00000
     88       4.0951      1.00000
     89       4.3166      1.00000
     90       4.3396      1.00000
     91       4.4223      1.00000
     92       4.6545      1.00000
     93       4.6773      1.00000
     94       4.9198      1.00000
     95       4.9975      1.00000
     96       5.1985      1.00000
     97       5.2312      1.00000
     98       5.5089      1.00000
     99       5.6200      1.00000
    100       5.6345      1.00000
    101       5.7185      1.00000
    102       5.7451      1.00000
    103       5.7811      1.00000
    104       5.8108      1.00000
    105       5.8657      1.00000
    106       6.0153      1.00000
    107       6.0505      1.00000
    108       6.0581      1.00000
    109       6.1924      1.00000
    110       6.2424      1.00000
    111       6.3306      1.00000
    112       6.3313      1.00000
    113       6.3744      1.00000
    114       6.4433      1.00000
    115       6.4592      1.00000
    116       6.4837      1.00000
    117       6.5513      1.00000
    118       6.5746      1.00000
    119       6.6196      1.00000
    120       6.6230      1.00000
    121       6.7445      1.00000
    122       7.2898      1.00000
    123       8.3472      1.00000
    124       8.5511      1.00000
    125       8.7086      1.00000
    126       9.8699      1.00000
    127      10.5801      1.00000
    128      11.2948      0.00000
    129      13.6607      0.00000
    130      13.8135      0.00000
    131      14.0331      0.00000
    132      14.0599      0.00000
    133      14.2144      0.00000
    134      14.2411      0.00000
    135      14.2727      0.00000
    136      14.5367      0.00000
    137      14.5374      0.00000
    138      14.6645      0.00000
    139      14.6664      0.00000
    140      14.8515      0.00000
    141      15.2545      0.00000
    142      15.5442      0.00000
    143      15.5702      0.00000
    144      17.0104      0.00000
    145      17.1072      0.00000
    146      17.1745      0.00000
    147      17.2074      0.00000
    148      17.2521      0.00000
    149      17.2894      0.00000
    150      17.4043      0.00000
    151      17.4487      0.00000
    152      17.6787      0.00000
    153      17.7234      0.00000
    154      17.7494      0.00000
    155      17.7752      0.00000
    156      17.7970      0.00000
    157      17.8715      0.00000
    158      17.8820      0.00000
    159      17.9793      0.00000
    160      18.0511      0.00000
    161      18.0883      0.00000
    162      18.1617      0.00000
    163      18.1698      0.00000
    164      18.2522      0.00000
    165      18.3104      0.00000
    166      18.3700      0.00000
    167      18.3904      0.00000
    168      18.4088      0.00000
    169      18.6426      0.00000
    170      18.6548      0.00000
    171      18.6881      0.00000
    172      18.9860      0.00000
    173      18.9885      0.00000
    174      19.0364      0.00000
    175      19.1348      0.00000
    176      19.1363      0.00000
    177      19.2402      0.00000
    178      19.2575      0.00000
    179      19.2896      0.00000
    180      19.2959      0.00000
    181      19.3860      0.00000
    182      19.4223      0.00000
    183      19.4821      0.00000
    184      19.5478      0.00000
    185      19.6355      0.00000
    186      19.6577      0.00000
    187      19.7219      0.00000
    188      19.8102      0.00000
    189      19.8606      0.00000
    190      20.0507      0.00000
    191      20.1118      0.00000
    192      20.1826      0.00000

 k-point     3 :       0.3333   -0.0000    0.0000
  band No.  band energies     occupation 
      1     -11.8477      1.00000
[...]
   -.159E+02 -.784E+01 -.780E+01   0.161E+02 0.788E+01 0.784E+01   -.229E+00 -.411E-01 -.414E-01   0.365E-03 0.753E-03 0.600E-03
   -.137E+01 0.325E+01 0.323E+01   0.141E+01 -.326E+01 -.323E+01   -.432E-01 0.758E-02 0.664E-02   0.577E-03 -.303E-03 -.380E-03
   -.338E+01 0.473E+01 -.259E+01   0.348E+01 -.482E+01 0.287E+01   -.103E+00 0.870E-01 -.284E+00   0.658E-03 -.546E-03 0.339E-04
   0.506E+01 -.865E+01 0.149E+02   -.510E+01 0.857E+01 -.151E+02   0.418E-01 0.766E-01 0.258E+00   -.474E-03 -.665E-03 -.504E-04
   0.621E+02 -.648E+02 -.648E+02   -.760E+02 0.787E+02 0.787E+02   0.139E+02 -.139E+02 -.139E+02   -.664E-03 -.488E-03 0.690E-03
   0.806E+00 0.551E+01 0.550E+01   -.927E+00 -.544E+01 -.542E+01   0.119E+00 -.729E-01 -.728E-01   -.320E-03 0.825E-03 0.890E-03
   0.506E+01 0.149E+02 -.862E+01   -.510E+01 -.151E+02 0.854E+01   0.401E-01 0.256E+00 0.779E-01   -.348E-03 0.739E-03 -.615E-03
   -.570E+01 -.236E+01 -.236E+01   0.598E+01 0.240E+01 0.239E+01   -.278E+00 -.329E-01 -.328E-01   0.107E-02 -.713E-03 -.991E-03
   -.177E+01 -.342E+01 0.302E+01   0.182E+01 0.337E+01 -.302E+01   -.572E-01 0.512E-01 -.336E-02   0.320E-03 0.134E-03 0.615E-03
   -.177E+01 0.304E+01 -.339E+01   0.182E+01 -.304E+01 0.334E+01   -.571E-01 -.285E-02 0.515E-01   0.277E-03 0.457E-03 -.473E-03
   -.788E+00 0.137E+01 0.138E+01   0.819E+00 -.137E+01 -.138E+01   -.298E-01 0.168E-02 0.229E-02   0.242E-03 0.457E-03 0.294E-03
   0.214E+01 -.240E+01 0.632E+01   -.219E+01 0.243E+01 -.657E+01   0.496E-01 -.276E-01 0.251E+00   -.646E-03 -.135E-03 0.106E-02
   0.214E+01 0.633E+01 -.240E+01   -.219E+01 -.658E+01 0.242E+01   0.495E-01 0.251E+00 -.275E-01   -.394E-03 0.711E-03 -.630E-03
   0.852E+00 0.310E+01 0.309E+01   -.947E+00 -.309E+01 -.308E+01   0.924E-01 -.113E-01 -.117E-01   0.189E-03 0.434E-03 0.546E-03
   -.147E+02 0.534E+01 0.534E+01   0.150E+02 -.539E+01 -.540E+01   -.345E+00 0.558E-01 0.556E-01   0.140E-02 -.392E-03 -.748E-03
   -.459E+01 0.423E+01 -.568E+01   0.473E+01 -.448E+01 0.577E+01   -.146E+00 0.249E+00 -.936E-01   0.964E-04 -.336E-03 0.566E-03
   -.457E+01 -.567E+01 0.419E+01   0.471E+01 0.576E+01 -.444E+01   -.145E+00 -.930E-01 0.248E+00   0.620E-03 0.609E-03 -.211E-03
   -.232E+01 -.167E+01 -.167E+01   0.227E+01 0.171E+01 0.171E+01   0.485E-01 -.445E-01 -.449E-01   -.260E-03 0.193E-03 0.414E-03
   0.505E+02 0.526E+02 0.526E+02   -.527E+02 -.547E+02 -.546E+02   0.225E+01 0.205E+01 0.206E+01   -.109E-02 -.818E-03 -.116E-02
   0.477E+01 -.170E+01 -.134E+02   -.504E+01 0.180E+01 0.137E+02   0.267E+00 -.100E+00 -.295E+00   -.415E-03 -.445E-03 0.971E-03
   0.476E+01 -.134E+02 -.170E+01   -.503E+01 0.137E+02 0.180E+01   0.267E+00 -.296E+00 -.100E+00   -.461E-03 0.114E-02 -.929E-03
   0.267E+01 0.336E+01 0.338E+01   -.300E+01 -.321E+01 -.323E+01   0.330E+00 -.155E+00 -.154E+00   -.421E-04 0.316E-03 0.720E-03
   -.185E+02 -.193E+02 0.470E+01   0.189E+02 0.199E+02 -.487E+01   -.401E+00 -.559E+00 0.169E+00   0.101E-02 0.124E-02 0.816E-03
   -.326E+01 -.604E+01 0.405E+00   0.328E+01 0.603E+01 -.532E+00   -.207E-01 0.503E-02 0.128E+00   -.291E-07 0.538E-03 0.126E-03
   -.160E+02 0.210E+02 -.833E+01   0.164E+02 -.214E+02 0.846E+01   -.345E+00 0.389E+00 -.129E+00   0.312E-03 -.817E-03 -.958E-03
   -.246E+01 0.498E+01 0.177E+01   0.255E+01 -.504E+01 -.173E+01   -.869E-01 0.620E-01 -.444E-01   0.195E-04 -.395E-03 0.217E-03
   0.654E+01 -.694E+01 -.278E+02   -.478E+01 0.517E+01 0.297E+02   -.175E+01 0.177E+01 -.194E+01   -.661E-03 0.239E-03 -.102E-02
   0.120E+01 -.283E+01 0.845E+01   -.123E+01 0.288E+01 -.846E+01   0.327E-01 -.505E-01 0.941E-02   -.199E-03 -.832E-04 0.876E-03
   0.162E+02 0.207E+02 0.234E+01   -.166E+02 -.210E+02 -.263E+01   0.394E+00 0.255E+00 0.291E+00   0.518E-03 0.919E-03 -.204E-02
   0.421E+01 0.548E+01 0.117E+01   -.421E+01 -.551E+01 -.121E+01   -.207E-02 0.318E-01 0.363E-01   0.813E-05 0.157E-03 0.139E-02
   -.469E+02 -.536E+02 0.537E+02   0.499E+02 0.567E+02 -.565E+02   -.296E+01 -.308E+01 0.282E+01   -.513E-03 -.676E-04 -.151E-02
   0.297E+01 -.703E+01 -.135E+02   -.309E+01 0.726E+01 0.138E+02   0.119E+00 -.233E+00 -.269E+00   0.128E-03 0.442E-03 0.866E-03
   -.507E+01 0.138E+02 0.475E+01   0.496E+01 -.141E+02 -.482E+01   0.111E+00 0.313E+00 0.669E-01   -.106E-02 0.181E-03 -.871E-03
   -.855E+00 0.489E+01 -.463E+01   0.106E+01 -.497E+01 0.467E+01   -.207E+00 0.848E-01 -.499E-01   0.386E-04 -.425E-03 0.828E-03
   0.114E+02 -.756E+01 -.261E+01   -.115E+02 0.777E+01 0.263E+01   0.124E+00 -.212E+00 -.197E-01   0.360E-03 -.805E-03 -.952E-03
   -.482E+01 -.462E+01 0.304E+01   0.467E+01 0.493E+01 -.286E+01   0.152E+00 -.312E+00 -.179E+00   0.360E-06 0.176E-03 0.920E-03
   0.477E+01 0.680E+01 0.416E+01   -.472E+01 -.682E+01 -.426E+01   -.491E-01 0.178E-01 0.999E-01   0.731E-03 0.109E-02 -.644E-03
   0.476E+00 0.396E+01 -.134E+01   -.489E+00 -.389E+01 0.141E+01   0.122E-01 -.718E-01 -.641E-01   0.543E-05 -.278E-03 0.816E-03
   -.160E+02 -.835E+01 0.210E+02   0.164E+02 0.848E+01 -.214E+02   -.345E+00 -.128E+00 0.390E+00   0.355E-03 -.596E-03 -.129E-02
   -.185E+02 0.466E+01 -.193E+02   0.189E+02 -.483E+01 0.199E+02   -.403E+00 0.169E+00 -.562E+00   0.711E-03 0.624E-03 0.139E-02
   -.246E+01 0.177E+01 0.496E+01   0.255E+01 -.173E+01 -.502E+01   -.856E-01 -.453E-01 0.602E-01   -.474E-04 0.169E-03 -.684E-03
   -.326E+01 0.417E+00 -.601E+01   0.328E+01 -.543E+00 0.601E+01   -.210E-01 0.129E+00 0.573E-02   0.147E-03 -.346E-03 0.858E-03
   0.162E+02 0.233E+01 0.207E+02   -.166E+02 -.262E+01 -.210E+02   0.396E+00 0.290E+00 0.258E+00   0.719E-03 -.220E-02 0.249E-03
   0.654E+01 -.278E+02 -.695E+01   -.478E+01 0.297E+02 0.518E+01   -.175E+01 -.194E+01 0.176E+01   -.168E-03 -.775E-03 0.358E-03
   0.420E+01 0.117E+01 0.546E+01   -.420E+01 -.121E+01 -.549E+01   -.174E-02 0.366E-01 0.316E-01   0.222E-03 0.109E-02 -.175E-03
   0.119E+01 0.844E+01 -.281E+01   -.123E+01 -.845E+01 0.285E+01   0.315E-01 0.808E-02 -.482E-01   -.527E-03 0.529E-03 0.526E-03
   -.508E+01 0.475E+01 0.138E+02   0.496E+01 -.482E+01 -.141E+02   0.111E+00 0.681E-01 0.315E+00   -.944E-03 -.274E-03 0.304E-03
   -.469E+02 0.538E+02 -.536E+02   0.498E+02 -.566E+02 0.567E+02   -.296E+01 0.281E+01 -.308E+01   -.804E-03 -.110E-02 0.390E-03
   -.856E+00 -.464E+01 0.487E+01   0.106E+01 0.469E+01 -.495E+01   -.207E+00 -.500E-01 0.841E-01   -.104E-03 0.184E-03 -.405E-03
   0.296E+01 -.136E+02 -.701E+01   -.308E+01 0.138E+02 0.724E+01   0.120E+00 -.269E+00 -.232E+00   0.300E-03 0.379E-03 0.651E-03
   0.478E+01 0.420E+01 0.681E+01   -.474E+01 -.429E+01 -.682E+01   -.486E-01 0.101E+00 0.186E-01   0.130E-02 -.721E-03 0.110E-02
   0.114E+02 -.260E+01 -.754E+01   -.115E+02 0.262E+01 0.775E+01   0.124E+00 -.203E-01 -.211E+00   0.827E-03 -.565E-03 -.102E-02
   0.477E+00 -.135E+01 0.394E+01   -.490E+00 0.141E+01 -.387E+01   0.131E-01 -.645E-01 -.719E-01   0.205E-03 0.103E-03 -.163E-03
   -.482E+01 0.303E+01 -.461E+01   0.467E+01 -.285E+01 0.492E+01   0.151E+00 -.180E+00 -.311E+00   -.300E-03 0.810E-03 0.134E-03
 -----------------------------------------------------------------------------------------------
   -.783E+01 0.107E+02 0.107E+02   0.275E-12 0.251E-12 0.142E-13   0.783E+01 -.107E+02 -.107E+02   0.282E-02 0.272E-02 0.286E-02
 
 
 POSITION                                       TOTAL-FORCE (eV/Angst)
 -----------------------------------------------------------------------------------
      7.11960     -0.01281      1.76359         0.001633     -0.001290      0.001518
      0.00083      0.00502      5.36501        -0.000388     -0.002447     -0.001864
      7.11453      3.55847      1.77161         0.000661      0.002031      0.001161
      7.10278      3.55679      5.35341         0.000783      0.002133     -0.000439
      3.55835      0.00206      1.77851         0.000722     -0.002583      0.002701
      3.57771      7.14619      5.35929         0.000413      0.002372      0.002369
      3.54244      3.56894      1.78199        -0.000683     -0.000728      0.000075
      3.54155      3.57169      5.36852        -0.000053      0.003104     -0.003677
      0.87565      0.89723      2.68991        -0.000102     -0.001709      0.000606
      0.88781      0.90516      6.26521        -0.000455     -0.001014     -0.001038
      0.87233      4.47127      2.68455         0.002577     -0.000502     -0.001095
      0.85879      4.48298      6.26358        -0.001088      0.001084     -0.001020
      4.44551      0.88522      2.67231         0.000057     -0.001509      0.002067
      4.51058      0.81150      6.17148         0.001030      0.000081     -0.000192
      4.43689      4.46793      2.68105        -0.002277      0.000002      0.000415
      4.42871      4.46574      6.25138        -0.001285      0.000515     -0.000474
     -0.00422      1.78900      0.00225        -0.000228      0.000205      0.000148
      7.11755      1.77118      3.55947        -0.001101     -0.001151     -0.000406
      7.10058      5.35268      7.13738        -0.001041     -0.000084     -0.000414
     -0.01978      5.36686      3.58004         0.000655      0.000139     -0.000119
      3.55281      1.78356      3.57241         0.000534      0.000313      0.000588
      3.55288      5.35934     -0.00325         0.000419      0.000120      0.000275
      3.54557      5.35739      3.57057        -0.002437     -0.000028     -0.000178
      0.88473      2.67996      0.89322        -0.001420      0.000043      0.000567
      0.87232      2.68533      4.47196        -0.000058      0.001479     -0.000383
      0.87216      6.25868      0.89863         0.001293      0.000160      0.000636
      0.87247      6.26287      4.47605         0.000488      0.000180     -0.000206
      4.45525      2.73386      0.94660        -0.005962     -0.005621     -0.003938
      4.43370      2.66071      4.47493        -0.000765     -0.000068     -0.001568
      4.43373      6.26182      0.87388        -0.001007     -0.001034      0.000083
      4.43813      6.23988      4.45288        -0.002111      0.000047      0.001049
      1.80829      0.02053      0.00030         0.001261      0.000675      0.000220
      1.78153      0.00090      3.58067         0.000906     -0.002054      0.000897
      1.77843      3.57686     -0.00031        -0.001051      0.001353     -0.000553
      1.76441      3.57718      3.57928         0.002235      0.001918     -0.001721
      5.31318      7.14553      7.10480         0.001973     -0.001511      0.002279
      5.32717      7.14036      3.56181        -0.000820     -0.001386      0.001408
      5.28942      3.54785      7.13947         0.000243      0.000515     -0.001616
      5.32898      3.55885      3.56998        -0.001199      0.002476      0.000000
      2.61253      0.83868      0.98640         0.002977     -0.001079      0.004404
      2.68014      0.89851      4.48084        -0.001230      0.000165      0.001430
      2.65728      4.47338      0.89372        -0.000015     -0.001292     -0.001938
      2.65469      4.47795      4.46356         0.000526      0.001620     -0.002482
      6.21832      0.88644      0.86040         0.001481     -0.002062      0.001434
      6.23906      0.87819      4.44704        -0.000052     -0.001681     -0.000847
      6.22297      4.45554      0.88278         0.000188     -0.000086      0.000950
      6.21866      4.45390      4.45918        -0.000976      0.000636      0.000588
      1.77828      1.78628      1.79005        -0.000174      0.001080      0.001247
      1.79163      1.79335      5.38723        -0.001071      0.000162     -0.001555
      1.76434      5.36610      1.79053         0.003038     -0.001610      0.000061
      1.76463      5.37372      5.36724         0.000615      0.002233     -0.001782
      5.30623      1.77335      1.75434         0.001179     -0.002733      0.002333
      5.33009      1.73856      5.35227         0.002362      0.002744     -0.001939
      5.32897      5.35690      1.77199        -0.000718      0.000435      0.002188
      5.32725      5.34884      5.35326        -0.001973      0.000770      0.000347
      2.65729      2.68043      2.68639        -0.000653     -0.001531      0.000091
      2.59606      2.77950      6.20555         0.000924      0.004579     -0.003123
      2.65464      6.25037      2.69125         0.001042     -0.001625      0.000596
      2.66312      6.27397      6.26479        -0.000365      0.002179      0.000986
      6.22290      2.66965      2.66858        -0.000187      0.001328      0.000170
      6.20139      2.65367      6.25263         0.001472      0.000611     -0.001636
      6.21859      6.24619      2.66699        -0.000067      0.000110      0.000945
      6.22219      6.24035      6.24437        -0.000672     -0.001178     -0.000629
 -----------------------------------------------------------------------------------
    total drift:                                0.000205      0.000065      0.000068


--------------------------------------------------------------------------------------------------------



  FREE ENERGIE OF THE ION-ELECTRON SYSTEM (eV)
  ---------------------------------------------------
  free  energy   TOTEN  =      -566.18841437 eV

  energy  without entropy=     -566.18841437  energy(sigma->0) =     -566.18841437
 


--------------------------------------------------------------------------------------------------------


    POTLOK:  cpu time    0.0140: real time    0.0144


--------------------------------------------------------------------------------------------------------


 stress matrix after NEB project (eV)
     -0.03127      0.01729      0.02908
      0.01729     -0.01364      0.00833
      0.02908      0.00833     -0.00757
  FORCES: max atom, RMS     0.009091    0.002689
  FORCE total and by dimension    0.021346    0.005962
  Stress total and by dimension    0.060405    0.031269


--------------------------------------------------------------------------------------------------------


  
 reached required accuracy - stopping structural energy minimisation
 writing wavefunctions
     LOOP+:  cpu time   80.4244: real time   87.5939
    4ORBIT:  cpu time    0.0000: real time    0.0000
 


 total charge     
 
# of ion       s       p       d       tot
------------------------------------------
    1        0.827   1.732   0.000   2.559
    2        0.828   1.739   0.000   2.567
    3        0.828   1.740   0.000   2.568
    4        0.827   1.732   0.000   2.559
    5        0.831   1.753   0.000   2.583
    6        0.824   1.708   0.000   2.532
    7        0.831   1.756   0.000   2.587
    8        0.831   1.753   0.000   2.583
    9        0.830   1.732   0.000   2.562
   10        0.828   1.740   0.000   2.568
   11        0.829   1.738   0.000   2.567
   12        0.830   1.732   0.000   2.562
   13        0.830   1.743   0.000   2.573
   14        1.211   2.677   0.000   3.888
   15        0.830   1.730   0.000   2.560
   16        0.830   1.743   0.000   2.573
   17        0.829   1.746   0.000   2.575
   18        0.831   1.748   0.000   2.578
   19        0.831   1.748   0.000   2.578
   20        0.828   1.737   0.000   2.565
   21        0.829   1.748   0.000   2.577
   22        0.829   1.748   0.000   2.577
   23        0.832   1.758   0.000   2.590
   24        0.828   1.736   0.000   2.564
   25        0.830   1.725   0.000   2.555
   26        0.830   1.725   0.000   2.555
   27        0.829   1.743   0.000   2.572
   28        0.847   1.652   0.000   2.499
   29        0.828   1.733   0.000   2.560
   30        0.828   1.733   0.000   2.560
   31        0.832   1.753   0.000   2.585
   32        0.828   1.733   0.000   2.561
   33        0.827   1.733   0.000   2.561
   34        0.830   1.754   0.000   2.584
   35        0.829   1.743   0.000   2.572
   36        0.824   1.704   0.000   2.528
   37        0.829   1.743   0.000   2.571
   38        0.828   1.732   0.000   2.561
   39        0.827   1.734   0.000   2.562
   40        0.846   1.692   0.000   2.538
   41        0.828   1.734   0.000   2.562
   42        0.830   1.741   0.000   2.571
   43        0.831   1.736   0.000   2.567
   44        0.827   1.732   0.000   2.560
   45        0.832   1.751   0.000   2.583
   46        0.830   1.722   0.000   2.552
   47        0.829   1.741   0.000   2.571
   48        0.830   1.754   0.000   2.584
   49        0.828   1.733   0.000   2.561
   50        0.829   1.743   0.000   2.572
   51        0.827   1.733   0.000   2.561
   52        0.828   1.732   0.000   2.560
   53        0.824   1.704   0.000   2.528
   54        0.828   1.734   0.000   2.562
   55        0.829   1.743   0.000   2.571
   56        0.830   1.741   0.000   2.571
   57        0.846   1.692   0.000   2.538
   58        0.831   1.736   0.000   2.567
   59        0.828   1.734   0.000   2.562
   60        0.830   1.722   0.000   2.552
   61        0.827   1.732   0.000   2.560
   62        0.829   1.741   0.000   2.571
   63        0.832   1.751   0.000   2.583
--------------------------------------------------
tot         52.658 110.234   0.000 162.892
 


 magnetization (x)
 
# of ion       s       p       d       tot
------------------------------------------
    1       -0.000  -0.001   0.000  -0.001
    2       -0.000  -0.001   0.000  -0.001
    3       -0.000  -0.000   0.000  -0.000
    4       -0.000  -0.001   0.000  -0.001
    5       -0.001  -0.004   0.000  -0.006
    6       -0.000  -0.002   0.000  -0.003
    7        0.001   0.002   0.000   0.003
    8       -0.001  -0.004   0.000  -0.006
    9        0.004   0.020   0.000   0.024
   10        0.001   0.006   0.000   0.007
   11        0.000   0.002   0.000   0.002
   12        0.004   0.020   0.000   0.024
   13        0.000   0.002   0.000   0.003
   14        0.002   0.013   0.000   0.015
   15       -0.002  -0.014   0.000  -0.016
   16        0.000   0.002   0.000   0.003
   17       -0.000  -0.001   0.000  -0.001
   18        0.001   0.004   0.000   0.005
   19        0.001   0.004   0.000   0.005
   20       -0.000  -0.000   0.000  -0.000
   21       -0.000  -0.001   0.000  -0.001
   22       -0.000  -0.001   0.000  -0.001
   23        0.001   0.004   0.000   0.005
   24        0.001   0.006   0.000   0.007
   25        0.004   0.018   0.000   0.022
   26        0.004   0.018   0.000   0.022
   27        0.000   0.003   0.000   0.003
   28       -0.021  -0.181   0.000  -0.202
   29        0.001   0.004   0.000   0.004
   30        0.001   0.004   0.000   0.004
   31       -0.000  -0.001   0.000  -0.001
   32       -0.002  -0.008   0.000  -0.011
   33       -0.000  -0.002   0.000  -0.002
   34       -0.002  -0.006   0.000  -0.008
   35       -0.000  -0.001   0.000  -0.002
   36        0.000   0.002   0.000   0.002
   37       -0.000  -0.000   0.000  -0.000
   38        0.001   0.006   0.000   0.007
   39        0.000   0.000   0.000   0.000
   40        0.036   0.300   0.000   0.337
   41        0.001   0.004   0.000   0.005
   42        0.001   0.003   0.000   0.003
   43        0.005   0.023   0.000   0.027
   44        0.000   0.000   0.000   0.000
   45        0.000   0.003   0.000   0.003
   46       -0.002  -0.012   0.000  -0.014
   47        0.000   0.001   0.000   0.001
   48       -0.002  -0.006   0.000  -0.008
   49       -0.002  -0.008   0.000  -0.011
   50       -0.000  -0.001   0.000  -0.002
   51       -0.000  -0.002   0.000  -0.002
   52        0.001   0.006   0.000   0.007
   53        0.000   0.002   0.000   0.002
   54        0.000   0.000   0.000   0.000
   55       -0.000  -0.000   0.000  -0.000
   56        0.001   0.003   0.000   0.003
   57        0.036   0.300   0.000   0.336
   58        0.005   0.023   0.000   0.027
   59        0.001   0.004   0.000   0.005
   60       -0.002  -0.012   0.000  -0.014
   61        0.000   0.000   0.000   0.000
   62        0.000   0.001   0.000   0.001
   63        0.000   0.003   0.000   0.003
--------------------------------------------------
tot          0.075   0.545   0.000   0.621
 
